 Entering Gaussian System, Link 0=g09
 Initial command:
 /usr/local/QComp/G09_RevD01/g09/l1.exe "/home/alumno/Documents/TFM/estructuras-scan-a-mano/Gau-2529.inp" -scrdir="/home/alumno/Documents/TFM/estructuras-scan-a-mano/"
 Entering Link 1 = /usr/local/QComp/G09_RevD01/g09/l1.exe PID=      2530.
  
 Copyright (c) 1988,1990,1992,1993,1995,1998,2003,2009,2013,
            Gaussian, Inc.  All Rights Reserved.
  
 This is part of the Gaussian(R) 09 program.  It is based on
 the Gaussian(R) 03 system (copyright 2003, Gaussian, Inc.),
 the Gaussian(R) 98 system (copyright 1998, Gaussian, Inc.),
 the Gaussian(R) 94 system (copyright 1995, Gaussian, Inc.),
 the Gaussian 92(TM) system (copyright 1992, Gaussian, Inc.),
 the Gaussian 90(TM) system (copyright 1990, Gaussian, Inc.),
 the Gaussian 88(TM) system (copyright 1988, Gaussian, Inc.),
 the Gaussian 86(TM) system (copyright 1986, Carnegie Mellon
 University), and the Gaussian 82(TM) system (copyright 1983,
 Carnegie Mellon University). Gaussian is a federally registered
 trademark of Gaussian, Inc.
  
 This software contains proprietary and confidential information,
 including trade secrets, belonging to Gaussian, Inc.
  
 This software is provided under written license and may be
 used, copied, transmitted, or stored only in accord with that
 written license.
  
 The following legend is applicable only to US Government
 contracts under FAR:
  
                    RESTRICTED RIGHTS LEGEND
  
 Use, reproduction and disclosure by the US Government is
 subject to restrictions as set forth in subparagraphs (a)
 and (c) of the Commercial Computer Software - Restricted
 Rights clause in FAR 52.227-19.
  
 Gaussian, Inc.
 340 Quinnipiac St., Bldg. 40, Wallingford CT 06492
  
  
 ---------------------------------------------------------------
 Warning -- This program may not be used in any manner that
 competes with the business of Gaussian, Inc. or will provide
 assistance to any competitor of Gaussian, Inc.  The licensee
 of this program is prohibited from giving any competitor of
 Gaussian, Inc. access to this program.  By using this program,
 the user acknowledges that Gaussian, Inc. is engaged in the
 business of creating and licensing software in the field of
 computational chemistry and represents and warrants to the
 licensee that it is not a competitor of Gaussian, Inc. and that
 it will not use this program in any manner prohibited above.
 ---------------------------------------------------------------
  

 Cite this work as:
 Gaussian 09, Revision D.01,
 M. J. Frisch, G. W. Trucks, H. B. Schlegel, G. E. Scuseria, 
 M. A. Robb, J. R. Cheeseman, G. Scalmani, V. Barone, B. Mennucci, 
 G. A. Petersson, H. Nakatsuji, M. Caricato, X. Li, H. P. Hratchian, 
 A. F. Izmaylov, J. Bloino, G. Zheng, J. L. Sonnenberg, M. Hada, 
 M. Ehara, K. Toyota, R. Fukuda, J. Hasegawa, M. Ishida, T. Nakajima, 
 Y. Honda, O. Kitao, H. Nakai, T. Vreven, J. A. Montgomery, Jr., 
 J. E. Peralta, F. Ogliaro, M. Bearpark, J. J. Heyd, E. Brothers, 
 K. N. Kudin, V. N. Staroverov, T. Keith, R. Kobayashi, J. Normand, 
 K. Raghavachari, A. Rendell, J. C. Burant, S. S. Iyengar, J. Tomasi, 
 M. Cossi, N. Rega, J. M. Millam, M. Klene, J. E. Knox, J. B. Cross, 
 V. Bakken, C. Adamo, J. Jaramillo, R. Gomperts, R. E. Stratmann, 
 O. Yazyev, A. J. Austin, R. Cammi, C. Pomelli, J. W. Ochterski, 
 R. L. Martin, K. Morokuma, V. G. Zakrzewski, G. A. Voth, 
 P. Salvador, J. J. Dannenberg, S. Dapprich, A. D. Daniels, 
 O. Farkas, J. B. Foresman, J. V. Ortiz, J. Cioslowski, 
 and D. J. Fox, Gaussian, Inc., Wallingford CT, 2013.
 
  
 -----  Compilado por  -----------------------------------------
  
  Servicio de Calculo | Servicio de Informatica U. de Valencia
     calculo@uv.es    |  E-46100 Burjassot (Valencia) SPAIN
  
 ---------------------------------------------------------------
  
 ******************************************
 Gaussian 09:  EM64L-G09RevD.01 24-Apr-2013
                14-Jun-2024 
 ******************************************
 %chk=H2O-0.chk
 --------------------------------
 # opt hf/6-31g geom=connectivity
 --------------------------------
 1/18=20,19=15,38=1,57=2/1,3;
 2/9=110,12=2,17=6,18=5,40=1/2;
 3/5=1,6=6,11=9,16=1,25=1,30=1,71=1/1,2,3;
 4//1;
 5/5=2,38=5/2;
 6/7=2,8=2,9=2,10=2,28=1/1;
 7//1,2,3,16;
 1/18=20,19=15/3(2);
 2/9=110/2;
 99//99;
 2/9=110/2;
 3/5=1,6=6,11=9,16=1,25=1,30=1,71=1/1,2,3;
 4/5=5,16=3,69=1/1;
 5/5=2,38=5/2;
 7//1,2,3,16;
 1/18=20,19=15/3(-5);
 2/9=110/2;
 6/7=2,8=2,9=2,10=2,19=2,28=1/1;
 99/9=1/99;
 -------------------
 Title Card Required
 -------------------
 Symbolic Z-matrix:
 Charge =  0 Multiplicity = 1
 O                     0.        0.37559  -0.14535 
 H                     0.        0.78384  -0.43402 
 H                     0.       -0.03266  -0.43402 
 

 GradGradGradGradGradGradGradGradGradGradGradGradGradGradGradGradGradGrad
 Berny optimization.
 Initialization pass.
                           ----------------------------
                           !    Initial Parameters    !
                           ! (Angstroms and Degrees)  !
 --------------------------                            --------------------------
 ! Name  Definition              Value          Derivative Info.                !
 --------------------------------------------------------------------------------
 ! R1    R(1,2)                  0.5            estimate D2E/DX2                !
 ! R2    R(1,3)                  0.5            estimate D2E/DX2                !
 ! A1    A(2,1,3)              109.4712         estimate D2E/DX2                !
 --------------------------------------------------------------------------------
 Trust Radius=3.00D-01 FncErr=1.00D-07 GrdErr=1.00D-07
 Number of steps in this run=     20 maximum allowed number of steps=    100.
 GradGradGradGradGradGradGradGradGradGradGradGradGradGradGradGradGradGrad

                          Input orientation:                          
 ---------------------------------------------------------------------
 Center     Atomic      Atomic             Coordinates (Angstroms)
 Number     Number       Type             X           Y           Z
 ---------------------------------------------------------------------
      1          8           0        0.000000    0.375588   -0.145346
      2          1           0        0.000000    0.783837   -0.434021
      3          1           0        0.000000   -0.032660   -0.434021
 ---------------------------------------------------------------------
                    Distance matrix (angstroms):
                    1          2          3
     1  O    0.000000
     2  H    0.500000   0.000000
     3  H    0.500000   0.816497   0.000000
 Stoichiometry    H2O
 Framework group  C2V[C2(O),SGV(H2)]
 Deg. of freedom     2
 Full point group                 C2V     NOp   4
 Largest Abelian subgroup         C2V     NOp   4
 Largest concise Abelian subgroup C2      NOp   2
                         Standard orientation:                         
 ---------------------------------------------------------------------
 Center     Atomic      Atomic             Coordinates (Angstroms)
 Number     Number       Type             X           Y           Z
 ---------------------------------------------------------------------
      1          8           0        0.000000    0.000000    0.057735
      2          1           0        0.000000    0.408248   -0.230940
      3          1           0        0.000000   -0.408248   -0.230940
 ---------------------------------------------------------------------
 Rotational constants (GHZ):   3387.8852372   1504.3653043   1041.7735074
 Standard basis: 6-31G (6D, 7F)
 There are     7 symmetry adapted cartesian basis functions of A1  symmetry.
 There are     0 symmetry adapted cartesian basis functions of A2  symmetry.
 There are     2 symmetry adapted cartesian basis functions of B1  symmetry.
 There are     4 symmetry adapted cartesian basis functions of B2  symmetry.
 There are     7 symmetry adapted basis functions of A1  symmetry.
 There are     0 symmetry adapted basis functions of A2  symmetry.
 There are     2 symmetry adapted basis functions of B1  symmetry.
 There are     4 symmetry adapted basis functions of B2  symmetry.
    13 basis functions,    30 primitive gaussians,    13 cartesian basis functions
     5 alpha electrons        5 beta electrons
       nuclear repulsion energy        17.5817776550 Hartrees.
 NAtoms=    3 NActive=    3 NUniq=    2 SFac= 2.25D+00 NAtFMM=   60 NAOKFM=F Big=F
 Integral buffers will be    131072 words long.
 Raffenetti 1 integral format.
 Two-electron integral symmetry is turned on.
 One-electron integrals computed using PRISM.
 NBasis=    13 RedAO= T EigKep=  3.04D-02  NBF=     7     0     2     4
 NBsUse=    13 1.00D-06 EigRej= -1.00D+00 NBFU=     7     0     2     4
 ExpMin= 1.61D-01 ExpMax= 5.48D+03 ExpMxC= 8.25D+02 IAcc=1 IRadAn=         1 AccDes= 0.00D+00
 Harris functional with IExCor=  205 and IRadAn=       1 diagonalized for initial guess.
 HarFok:  IExCor=  205 AccDes= 0.00D+00 IRadAn=         1 IDoV= 1 UseB2=F ITyADJ=14
 ICtDFT=  3500011 ScaDFX=  1.000000  1.000000  1.000000  1.000000
 FoFCou: FMM=F IPFlag=           0 FMFlag=      100000 FMFlg1=           0
         NFxFlg=           0 DoJE=T BraDBF=F KetDBF=T FulRan=T
         wScrn=  0.000000 ICntrl=     500 IOpCl=  0 I1Cent=   200000004 NGrid=           0
         NMat0=    1 NMatS0=      1 NMatT0=    0 NMatD0=    1 NMtDS0=    0 NMtDT0=    0
 Petite list used in FoFCou.
 Initial guess orbital symmetries:
       Occupied  (A1) (A1) (B2) (A1) (B1)
       Virtual   (A1) (B2) (A1) (B1) (B2) (A1) (B2) (A1)
 The electronic state of the initial guess is 1-A1.
 Keep R1 ints in memory in symmetry-blocked form, NReq=829813.
 Requested convergence on RMS density matrix=1.00D-08 within 128 cycles.
 Requested convergence on MAX density matrix=1.00D-06.
 Requested convergence on             energy=1.00D-06.
 No special actions if energy rises.
 SCF Done:  E(RHF) =  -74.4217818816     A.U. after    9 cycles
            NFock=  9  Conv=0.64D-08     -V/T= 1.9272

 **********************************************************************

            Population analysis using the SCF density.

 **********************************************************************

 Orbital symmetries:
       Occupied  (A1) (A1) (B2) (A1) (B1)
       Virtual   (A1) (B2) (A1) (B1) (B2) (A1) (B2) (A1)
 The electronic state is 1-A1.
 Alpha  occ. eigenvalues --  -20.54544  -1.73439  -1.06665  -0.62685  -0.56670
 Alpha virt. eigenvalues --    0.26401   0.34838   1.04230   1.12603   1.18338
 Alpha virt. eigenvalues --    1.69013   2.38265   2.80656
          Condensed to atoms (all electrons):
               1          2          3
     1  O    7.354016   0.400553   0.400553
     2  H    0.400553   0.714983  -0.193096
     3  H    0.400553  -0.193096   0.714983
 Mulliken charges:
               1
     1  O   -0.155121
     2  H    0.077561
     3  H    0.077561
 Sum of Mulliken charges =   0.00000
 Mulliken charges with hydrogens summed into heavy atoms:
               1
     1  O    0.000000
 Electronic spatial extent (au):  <R**2>=             13.6623
 Charge=              0.0000 electrons
 Dipole moment (field-independent basis, Debye):
    X=              0.0000    Y=              0.0000    Z=             -2.1933  Tot=              2.1933
 Quadrupole moment (field-independent basis, Debye-Ang):
   XX=             -6.0413   YY=             -4.5241   ZZ=             -5.5694
   XY=              0.0000   XZ=              0.0000   YZ=              0.0000
 Traceless Quadrupole moment (field-independent basis, Debye-Ang):
   XX=             -0.6630   YY=              0.8542   ZZ=             -0.1911
   XY=              0.0000   XZ=              0.0000   YZ=              0.0000
 Octapole moment (field-independent basis, Debye-Ang**2):
  XXX=              0.0000  YYY=              0.0000  ZZZ=             -1.6082  XYY=              0.0000
  XXY=              0.0000  XXZ=             -0.5596  XZZ=              0.0000  YZZ=              0.0000
  YYZ=             -0.4864  XYZ=              0.0000
 Hexadecapole moment (field-independent basis, Debye-Ang**3):
 XXXX=             -4.0377 YYYY=             -3.1232 ZZZZ=             -3.8245 XXXY=              0.0000
 XXXZ=              0.0000 YYYX=              0.0000 YYYZ=              0.0000 ZZZX=              0.0000
 ZZZY=              0.0000 XXYY=             -1.1995 XXZZ=             -1.3138 YYZZ=             -1.1475
 XXYZ=              0.0000 YYXZ=              0.0000 ZZXY=              0.0000
 N-N= 1.758177765503D+01 E-N=-2.151956713314D+02  KE= 8.026863926263D+01
 Symmetry A1   KE= 6.994484876425D+01
 Symmetry A2   KE= 0.000000000000D+00
 Symmetry B1   KE= 4.897454442182D+00
 Symmetry B2   KE= 5.426336056201D+00
 Calling FoFJK, ICntrl=      2127 FMM=F ISym2X=1 I1Cent= 0 IOpClX= 0 NMat=1 NMatS=1 NMatT=0.
 ***** Axes restored to original set *****
 -------------------------------------------------------------------
 Center     Atomic                   Forces (Hartrees/Bohr)
 Number     Number              X              Y              Z
 -------------------------------------------------------------------
      1        8           0.000000000    0.000000000    3.701319053
      2        1           0.000000000    2.780123675   -1.850659527
      3        1           0.000000000   -2.780123675   -1.850659527
 -------------------------------------------------------------------
 Cartesian Forces:  Max     3.701319053 RMS     2.000217194

 GradGradGradGradGradGradGradGradGradGradGradGradGradGradGradGradGradGrad
 Berny optimization.
 FormGI is forming the generalized inverse of G from B-inverse, IUseBI=4.
 Internal  Forces:  Max     3.338440250 RMS     2.726307830
 Search for a local minimum.
 Step number   1 out of a maximum of   20
 All quantities printed in internal units (Hartrees-Bohrs-Radians)
 Mixed Optimization -- RFO/linear search
 Second derivative matrix not updated -- first step.
 The second derivative matrix:
                          R1        R2        A1
           R1           8.32120
           R2           0.00000   8.32120
           A1           0.00000   0.00000   0.16000
 ITU=  0
     Eigenvalues ---    0.16000   8.32120   8.32120
 RFO step:  Lambda=-2.13518722D+00 EMin= 1.60000000D-01
 Linear search not attempted -- first point.
 Maximum step size (   0.300) exceeded in Quadratic search.
    -- Step size scaled by   0.662
 Iteration  1 RMS(Cart)=  0.14768143 RMS(Int)=  0.00957586
 Iteration  2 RMS(Cart)=  0.00900699 RMS(Int)=  0.00002536
 Iteration  3 RMS(Cart)=  0.00001442 RMS(Int)=  0.00000000
 Iteration  4 RMS(Cart)=  0.00000000 RMS(Int)=  0.00000000
 ClnCor:  largest displacement from symmetrization is 1.11D-16 for atom     3.
 Variable       Old X    -DE/DX   Delta X   Delta X   Delta X     New X
                                 (Linear)    (Quad)   (Total)
    R1        0.94486   3.33844   0.00000   0.21136   0.21136   1.15622
    R2        0.94486   3.33844   0.00000   0.21136   0.21136   1.15622
    A1        1.91063   0.08886   0.00000   0.02563   0.02563   1.93626
         Item               Value     Threshold  Converged?
 Maximum Force            3.338440     0.000450     NO 
 RMS     Force            2.726308     0.000300     NO 
 Maximum Displacement     0.181049     0.001800     NO 
 RMS     Displacement     0.156637     0.001200     NO 
 Predicted change in Energy=-1.041706D+00
 GradGradGradGradGradGradGradGradGradGradGradGradGradGradGradGradGradGrad

                          Input orientation:                          
 ---------------------------------------------------------------------
 Center     Atomic      Atomic             Coordinates (Angstroms)
 Number     Number       Type             X           Y           Z
 ---------------------------------------------------------------------
      1          8           0        0.000000    0.375588   -0.106584
      2          1           0        0.000000    0.879644   -0.453402
      3          1           0        0.000000   -0.128467   -0.453402
 ---------------------------------------------------------------------
                    Distance matrix (angstroms):
                    1          2          3
     1  O    0.000000
     2  H    0.611845   0.000000
     3  H    0.611845   1.008110   0.000000
 Stoichiometry    H2O
 Framework group  C2V[C2(O),SGV(H2)]
 Deg. of freedom     2
 Full point group                 C2V     NOp   4
 Largest Abelian subgroup         C2V     NOp   4
 Largest concise Abelian subgroup C2      NOp   2
                         Standard orientation:                         
 ---------------------------------------------------------------------
 Center     Atomic      Atomic             Coordinates (Angstroms)
 Number     Number       Type             X           Y           Z
 ---------------------------------------------------------------------
      1          8           0        0.000000    0.000000    0.069364
      2          1           0        0.000000    0.504055   -0.277454
      3          1           0        0.000000   -0.504055   -0.277454
 ---------------------------------------------------------------------
 Rotational constants (GHZ):   2347.1681715    986.8381769    694.7422762
 Standard basis: 6-31G (6D, 7F)
 There are     7 symmetry adapted cartesian basis functions of A1  symmetry.
 There are     0 symmetry adapted cartesian basis functions of A2  symmetry.
 There are     2 symmetry adapted cartesian basis functions of B1  symmetry.
 There are     4 symmetry adapted cartesian basis functions of B2  symmetry.
 There are     7 symmetry adapted basis functions of A1  symmetry.
 There are     0 symmetry adapted basis functions of A2  symmetry.
 There are     2 symmetry adapted basis functions of B1  symmetry.
 There are     4 symmetry adapted basis functions of B2  symmetry.
    13 basis functions,    30 primitive gaussians,    13 cartesian basis functions
     5 alpha electrons        5 beta electrons
       nuclear repulsion energy        14.3631227079 Hartrees.
 NAtoms=    3 NActive=    3 NUniq=    2 SFac= 2.25D+00 NAtFMM=   60 NAOKFM=F Big=F
 Integral buffers will be    131072 words long.
 Raffenetti 1 integral format.
 Two-electron integral symmetry is turned on.
 One-electron integrals computed using PRISM.
 NBasis=    13 RedAO= T EigKep=  5.00D-02  NBF=     7     0     2     4
 NBsUse=    13 1.00D-06 EigRej= -1.00D+00 NBFU=     7     0     2     4
 Initial guess from the checkpoint file:  "H2O-0.chk"
 B after Tr=     0.000000    0.000000    0.000000
         Rot=    1.000000    0.000000    0.000000    0.000000 Ang=   0.00 deg.
 Initial guess orbital symmetries:
       Occupied  (A1) (A1) (B2) (A1) (B1)
       Virtual   (A1) (A1) (A1) (A1) (B1) (B2) (B2) (B2)
 ExpMin= 1.61D-01 ExpMax= 5.48D+03 ExpMxC= 8.25D+02 IAcc=1 IRadAn=         1 AccDes= 0.00D+00
 Harris functional with IExCor=  205 and IRadAn=       1 diagonalized for initial guess.
 HarFok:  IExCor=  205 AccDes= 0.00D+00 IRadAn=         1 IDoV= 1 UseB2=F ITyADJ=14
 ICtDFT=  3500011 ScaDFX=  1.000000  1.000000  1.000000  1.000000
 FoFCou: FMM=F IPFlag=           0 FMFlag=      100000 FMFlg1=           0
         NFxFlg=           0 DoJE=T BraDBF=F KetDBF=T FulRan=T
         wScrn=  0.000000 ICntrl=     500 IOpCl=  0 I1Cent=   200000004 NGrid=           0
         NMat0=    1 NMatS0=      1 NMatT0=    0 NMatD0=    1 NMtDS0=    0 NMtDT0=    0
 Petite list used in FoFCou.
 Keep R1 ints in memory in symmetry-blocked form, NReq=829771.
 Requested convergence on RMS density matrix=1.00D-08 within 128 cycles.
 Requested convergence on MAX density matrix=1.00D-06.
 Requested convergence on             energy=1.00D-06.
 No special actions if energy rises.
 SCF Done:  E(RHF) =  -75.3828325368     A.U. after    9 cycles
            NFock=  9  Conv=0.88D-08     -V/T= 1.9597
 Calling FoFJK, ICntrl=      2127 FMM=F ISym2X=1 I1Cent= 0 IOpClX= 0 NMat=1 NMatS=1 NMatT=0.
 ***** Axes restored to original set *****
 -------------------------------------------------------------------
 Center     Atomic                   Forces (Hartrees/Bohr)
 Number     Number              X              Y              Z
 -------------------------------------------------------------------
      1        8           0.000000000    0.000000000    1.563110133
      2        1           0.000000000    1.225385409   -0.781555067
      3        1           0.000000000   -1.225385409   -0.781555067
 -------------------------------------------------------------------
 Cartesian Forces:  Max     1.563110133 RMS     0.860756046

 GradGradGradGradGradGradGradGradGradGradGradGradGradGradGradGradGradGrad
 Berny optimization.
 Using GEDIIS/GDIIS optimizer.
 FormGI is forming the generalized inverse of G from B-inverse, IUseBI=4.
 Internal  Forces:  Max     1.452523389 RMS     1.186463765
 Search for a local minimum.
 Step number   2 out of a maximum of   20
 All quantities printed in internal units (Hartrees-Bohrs-Radians)
 Mixed Optimization -- RFO/linear search
 Update second derivatives using D2CorX and points    1    2
 DE= -9.61D-01 DEPred=-1.04D+00 R= 9.23D-01
 TightC=F SS=  1.41D+00  RLast= 3.00D-01 DXNew= 5.0454D-01 9.0000D-01
 Trust test= 9.23D-01 RLast= 3.00D-01 DXMaxT set to 5.05D-01
 The second derivative matrix:
                          R1        R2        A1
           R1           8.61832
           R2           0.29712   8.61832
           A1           0.06169   0.06169   0.16112
 ITU=  1  0
 Use linear search instead of GDIIS.
 Linear search step of   0.600 exceeds DXMaxT=   0.505 but not scaled.
 Quartic linear search produced a step of  2.00000.
 Iteration  1 RMS(Cart)=  0.15406262 RMS(Int)=  0.18163252
 Iteration  2 RMS(Cart)=  0.14745180 RMS(Int)=  0.01828238
 Iteration  3 RMS(Cart)=  0.01657300 RMS(Int)=  0.00000796
 Iteration  4 RMS(Cart)=  0.00000642 RMS(Int)=  0.00000000
 Iteration  5 RMS(Cart)=  0.00000000 RMS(Int)=  0.00000000
 ClnCor:  largest displacement from symmetrization is 4.58D-16 for atom     3.
 Variable       Old X    -DE/DX   Delta X   Delta X   Delta X     New X
                                 (Linear)    (Quad)   (Total)
    R1        1.15622   1.45252   0.42271   0.00000   0.42271   1.57893
    R2        1.15622   1.45252   0.42271   0.00000   0.42271   1.57893
    A1        1.93626   0.05865   0.05126   0.00000   0.05126   1.98752
         Item               Value     Threshold  Converged?
 Maximum Force            1.452523     0.000450     NO 
 RMS     Force            1.186464     0.000300     NO 
 Maximum Displacement     0.370752     0.001800     NO 
 RMS     Displacement     0.317910     0.001200     NO 
 Predicted change in Energy=-3.649438D-01
 GradGradGradGradGradGradGradGradGradGradGradGradGradGradGradGradGradGrad

                          Input orientation:                          
 ---------------------------------------------------------------------
 Center     Atomic      Atomic             Coordinates (Angstroms)
 Number     Number       Type             X           Y           Z
 ---------------------------------------------------------------------
      1          8           0        0.000000    0.375588   -0.033917
      2          1           0        0.000000    1.075837   -0.489736
      3          1           0        0.000000   -0.324660   -0.489736
 ---------------------------------------------------------------------
                    Distance matrix (angstroms):
                    1          2          3
     1  O    0.000000
     2  H    0.835535   0.000000
     3  H    0.835535   1.400498   0.000000
 Stoichiometry    H2O
 Framework group  C2V[C2(O),SGV(H2)]
 Deg. of freedom     2
 Full point group                 C2V     NOp   4
 Largest Abelian subgroup         C2V     NOp   4
 Largest concise Abelian subgroup C2      NOp   2
                         Standard orientation:                         
 ---------------------------------------------------------------------
 Center     Atomic      Atomic             Coordinates (Angstroms)
 Number     Number       Type             X           Y           Z
 ---------------------------------------------------------------------
      1          8           0        0.000000    0.000000    0.091164
      2          1           0        0.000000    0.700249   -0.364655
      3          1           0        0.000000   -0.700249   -0.364655
 ---------------------------------------------------------------------
 Rotational constants (GHZ):   1358.8254389    511.3253846    371.5218748
 Standard basis: 6-31G (6D, 7F)
 There are     7 symmetry adapted cartesian basis functions of A1  symmetry.
 There are     0 symmetry adapted cartesian basis functions of A2  symmetry.
 There are     2 symmetry adapted cartesian basis functions of B1  symmetry.
 There are     4 symmetry adapted cartesian basis functions of B2  symmetry.
 There are     7 symmetry adapted basis functions of A1  symmetry.
 There are     0 symmetry adapted basis functions of A2  symmetry.
 There are     2 symmetry adapted basis functions of B1  symmetry.
 There are     4 symmetry adapted basis functions of B2  symmetry.
    13 basis functions,    30 primitive gaussians,    13 cartesian basis functions
     5 alpha electrons        5 beta electrons
       nuclear repulsion energy        10.5112789423 Hartrees.
 NAtoms=    3 NActive=    3 NUniq=    2 SFac= 2.25D+00 NAtFMM=   60 NAOKFM=F Big=F
 Integral buffers will be    131072 words long.
 Raffenetti 1 integral format.
 Two-electron integral symmetry is turned on.
 One-electron integrals computed using PRISM.
 NBasis=    13 RedAO= T EigKep=  9.27D-02  NBF=     7     0     2     4
 NBsUse=    13 1.00D-06 EigRej= -1.00D+00 NBFU=     7     0     2     4
 Initial guess from the checkpoint file:  "H2O-0.chk"
 B after Tr=     0.000000    0.000000    0.000000
         Rot=    1.000000    0.000000    0.000000    0.000000 Ang=   0.00 deg.
 Initial guess orbital symmetries:
       Occupied  (A1) (A1) (B2) (A1) (B1)
       Virtual   (A1) (A1) (A1) (A1) (B1) (B2) (B2) (B2)
 ExpMin= 1.61D-01 ExpMax= 5.48D+03 ExpMxC= 8.25D+02 IAcc=1 IRadAn=         1 AccDes= 0.00D+00
 Harris functional with IExCor=  205 and IRadAn=       1 diagonalized for initial guess.
 HarFok:  IExCor=  205 AccDes= 0.00D+00 IRadAn=         1 IDoV= 1 UseB2=F ITyADJ=14
 ICtDFT=  3500011 ScaDFX=  1.000000  1.000000  1.000000  1.000000
 FoFCou: FMM=F IPFlag=           0 FMFlag=      100000 FMFlg1=           0
         NFxFlg=           0 DoJE=T BraDBF=F KetDBF=T FulRan=T
         wScrn=  0.000000 ICntrl=     500 IOpCl=  0 I1Cent=   200000004 NGrid=           0
         NMat0=    1 NMatS0=      1 NMatT0=    0 NMatD0=    1 NMtDS0=    0 NMtDT0=    0
 Petite list used in FoFCou.
 Keep R1 ints in memory in symmetry-blocked form, NReq=829687.
 Requested convergence on RMS density matrix=1.00D-08 within 128 cycles.
 Requested convergence on MAX density matrix=1.00D-06.
 Requested convergence on             energy=1.00D-06.
 No special actions if energy rises.
 SCF Done:  E(RHF) =  -75.9498609471     A.U. after   11 cycles
            NFock= 11  Conv=0.11D-08     -V/T= 1.9918
 Calling FoFJK, ICntrl=      2127 FMM=F ISym2X=1 I1Cent= 0 IOpClX= 0 NMat=1 NMatS=1 NMatT=0.
 ***** Axes restored to original set *****
 -------------------------------------------------------------------
 Center     Atomic                   Forces (Hartrees/Bohr)
 Number     Number              X              Y              Z
 -------------------------------------------------------------------
      1        8           0.000000000    0.000000000    0.196439787
      2        1           0.000000000    0.163239981   -0.098219894
      3        1           0.000000000   -0.163239981   -0.098219894
 -------------------------------------------------------------------
 Cartesian Forces:  Max     0.196439787 RMS     0.111144284

 GradGradGradGradGradGradGradGradGradGradGradGradGradGradGradGradGradGrad
 Berny optimization.
 Using GEDIIS/GDIIS optimizer.
 FormGI is forming the generalized inverse of G from B-inverse, IUseBI=4.
 Internal  Forces:  Max     0.190391819 RMS     0.155575553
 Search for a local minimum.
 Step number   3 out of a maximum of   20
 All quantities printed in internal units (Hartrees-Bohrs-Radians)
 Mixed Optimization -- RFO/linear search
 Update second derivatives using D2CorX and points    2    3
 The second derivative matrix:
                          R1        R2        A1
           R1           5.65065
           R2          -2.67055   5.65065
           A1           0.04697   0.04697   0.16213
 ITU=  0  1  0
 Use linear search instead of GDIIS.
 Linear search step of   0.882 exceeds DXMaxT=   0.505 but not scaled.
 Quartic linear search produced a step of  1.46944.
 Iteration  1 RMS(Cart)=  0.16571913 RMS(Int)=  0.34309375
 Iteration  2 RMS(Cart)=  0.15008286 RMS(Int)=  0.17974829
 Iteration  3 RMS(Cart)=  0.14844966 RMS(Int)=  0.01644823
 Iteration  4 RMS(Cart)=  0.01495458 RMS(Int)=  0.00000042
 Iteration  5 RMS(Cart)=  0.00000046 RMS(Int)=  0.00000000
 ClnCor:  largest displacement from symmetrization is 2.01D-14 for atom     3.
 Variable       Old X    -DE/DX   Delta X   Delta X   Delta X     New X
                                 (Linear)    (Quad)   (Total)
    R1        1.57893   0.19039   0.62115   0.00000   0.62115   2.20009
    R2        1.57893   0.19039   0.62115   0.00000   0.62115   2.20009
    A1        1.98752   0.01064   0.07532   0.00000   0.07532   2.06285
         Item               Value     Threshold  Converged?
 Maximum Force            0.190392     0.000450     NO 
 RMS     Force            0.155576     0.000300     NO 
 Maximum Displacement     0.564464     0.001800     NO 
 RMS     Displacement     0.477958     0.001200     NO 
 Predicted change in Energy=-9.173415D-01
 GradGradGradGradGradGradGradGradGradGradGradGradGradGradGradGradGradGrad

                          Input orientation:                          
 ---------------------------------------------------------------------
 Center     Atomic      Atomic             Coordinates (Angstroms)
 Number     Number       Type             X           Y           Z
 ---------------------------------------------------------------------
      1          8           0        0.000000    0.375588    0.060836
      2          1           0        0.000000    1.374539   -0.537112
      3          1           0        0.000000   -0.623362   -0.537112
 ---------------------------------------------------------------------
                    Distance matrix (angstroms):
                    1          2          3
     1  O    0.000000
     2  H    1.164235   0.000000
     3  H    1.164235   1.997901   0.000000
 Stoichiometry    H2O
 Framework group  C2V[C2(O),SGV(H2)]
 Deg. of freedom     2
 Full point group                 C2V     NOp   4
 Largest Abelian subgroup         C2V     NOp   4
 Largest concise Abelian subgroup C2      NOp   2
                         Standard orientation:                         
 ---------------------------------------------------------------------
 Center     Atomic      Atomic             Coordinates (Angstroms)
 Number     Number       Type             X           Y           Z
 ---------------------------------------------------------------------
      1          8           0        0.000000    0.000000    0.119590
      2          1           0        0.000000    0.998950   -0.478358
      3          1           0        0.000000   -0.998950   -0.478358
 ---------------------------------------------------------------------
 Rotational constants (GHZ):    789.6248693    251.2547784    190.6051501
 Standard basis: 6-31G (6D, 7F)
 There are     7 symmetry adapted cartesian basis functions of A1  symmetry.
 There are     0 symmetry adapted cartesian basis functions of A2  symmetry.
 There are     2 symmetry adapted cartesian basis functions of B1  symmetry.
 There are     4 symmetry adapted cartesian basis functions of B2  symmetry.
 There are     7 symmetry adapted basis functions of A1  symmetry.
 There are     0 symmetry adapted basis functions of A2  symmetry.
 There are     2 symmetry adapted basis functions of B1  symmetry.
 There are     4 symmetry adapted basis functions of B2  symmetry.
    13 basis functions,    30 primitive gaussians,    13 cartesian basis functions
     5 alpha electrons        5 beta electrons
       nuclear repulsion energy         7.5373115666 Hartrees.
 NAtoms=    3 NActive=    3 NUniq=    2 SFac= 2.25D+00 NAtFMM=   60 NAOKFM=F Big=F
 Integral buffers will be    131072 words long.
 Raffenetti 1 integral format.
 Two-electron integral symmetry is turned on.
 One-electron integrals computed using PRISM.
 NBasis=    13 RedAO= T EigKep=  1.72D-01  NBF=     7     0     2     4
 NBsUse=    13 1.00D-06 EigRej= -1.00D+00 NBFU=     7     0     2     4
 Initial guess from the checkpoint file:  "H2O-0.chk"
 B after Tr=     0.000000    0.000000    0.000000
         Rot=    1.000000    0.000000    0.000000    0.000000 Ang=   0.00 deg.
 Initial guess orbital symmetries:
       Occupied  (A1) (A1) (B2) (A1) (B1)
       Virtual   (A1) (A1) (A1) (A1) (B1) (B2) (B2) (B2)
 ExpMin= 1.61D-01 ExpMax= 5.48D+03 ExpMxC= 8.25D+02 IAcc=1 IRadAn=         1 AccDes= 0.00D+00
 Harris functional with IExCor=  205 and IRadAn=       1 diagonalized for initial guess.
 HarFok:  IExCor=  205 AccDes= 0.00D+00 IRadAn=         1 IDoV= 1 UseB2=F ITyADJ=14
 ICtDFT=  3500011 ScaDFX=  1.000000  1.000000  1.000000  1.000000
 FoFCou: FMM=F IPFlag=           0 FMFlag=      100000 FMFlg1=           0
         NFxFlg=           0 DoJE=T BraDBF=F KetDBF=T FulRan=T
         wScrn=  0.000000 ICntrl=     500 IOpCl=  0 I1Cent=   200000004 NGrid=           0
         NMat0=    1 NMatS0=      1 NMatT0=    0 NMatD0=    1 NMtDS0=    0 NMtDT0=    0
 Petite list used in FoFCou.
 Keep R1 ints in memory in symmetry-blocked form, NReq=829601.
 Requested convergence on RMS density matrix=1.00D-08 within 128 cycles.
 Requested convergence on MAX density matrix=1.00D-06.
 Requested convergence on             energy=1.00D-06.
 No special actions if energy rises.
 SCF Done:  E(RHF) =  -75.9211185478     A.U. after   11 cycles
            NFock= 11  Conv=0.15D-08     -V/T= 2.0073
 Calling FoFJK, ICntrl=      2127 FMM=F ISym2X=1 I1Cent= 0 IOpClX= 0 NMat=1 NMatS=1 NMatT=0.
 ***** Axes restored to original set *****
 -------------------------------------------------------------------
 Center     Atomic                   Forces (Hartrees/Bohr)
 Number     Number              X              Y              Z
 -------------------------------------------------------------------
      1        8           0.000000000    0.000000000   -0.091538906
      2        1           0.000000000   -0.112031727    0.045769453
      3        1           0.000000000    0.112031727    0.045769453
 -------------------------------------------------------------------
 Cartesian Forces:  Max     0.112031727 RMS     0.064696963

 GradGradGradGradGradGradGradGradGradGradGradGradGradGradGradGradGradGrad
 Berny optimization.
 Using GEDIIS/GDIIS optimizer.
 FormGI is forming the generalized inverse of G from B-inverse, IUseBI=4.
 Internal  Forces:  Max     0.119633804 RMS     0.100398779
 Search for a local minimum.
 Step number   4 out of a maximum of   20
 All quantities printed in internal units (Hartrees-Bohrs-Radians)
 Mixed Optimization -- RFO/linear search
 Update second derivatives using D2CorX and points    2    4    3
 The second derivative matrix:
                          R1        R2        A1
           R1           4.40829
           R2          -3.91291   4.40829
           A1           0.03081   0.03081   0.16662
 ITU=  0  0  1  0
 Use linear search instead of GDIIS.
     Eigenvalues ---    0.16094   0.50105   8.32120
 RFO step:  Lambda=-1.76311170D-03 EMin= 1.60941770D-01
 Quartic linear search produced a step of -0.65536.
 Iteration  1 RMS(Cart)=  0.21148440 RMS(Int)=  0.16813957
 Iteration  2 RMS(Cart)=  0.13940988 RMS(Int)=  0.00477174
 Iteration  3 RMS(Cart)=  0.00462605 RMS(Int)=  0.00000306
 Iteration  4 RMS(Cart)=  0.00000263 RMS(Int)=  0.00000000
 Iteration  5 RMS(Cart)=  0.00000000 RMS(Int)=  0.00000000
 ClnCor:  largest displacement from symmetrization is 4.01D-16 for atom     3.
 Variable       Old X    -DE/DX   Delta X   Delta X   Delta X     New X
                                 (Linear)    (Quad)   (Total)
    R1        2.20009  -0.11963  -0.40708   0.00847  -0.39861   1.80147
    R2        2.20009  -0.11963  -0.40708   0.00847  -0.39861   1.80147
    A1        2.06285  -0.04019  -0.04936  -0.10338  -0.15275   1.91010
         Item               Value     Threshold  Converged?
 Maximum Force            0.119634     0.000450     NO 
 RMS     Force            0.100399     0.000300     NO 
 Maximum Displacement     0.417124     0.001800     NO 
 RMS     Displacement     0.343183     0.001200     NO 
 Predicted change in Energy=-1.163573D-02
 GradGradGradGradGradGradGradGradGradGradGradGradGradGradGradGradGradGrad

                          Input orientation:                          
 ---------------------------------------------------------------------
 Center     Atomic      Atomic             Coordinates (Angstroms)
 Number     Number       Type             X           Y           Z
 ---------------------------------------------------------------------
      1          8           0        0.000000    0.375588    0.029267
      2          1           0        0.000000    1.153806   -0.521328
      3          1           0        0.000000   -0.402629   -0.521328
 ---------------------------------------------------------------------
                    Distance matrix (angstroms):
                    1          2          3
     1  O    0.000000
     2  H    0.953298   0.000000
     3  H    0.953298   1.556435   0.000000
 Stoichiometry    H2O
 Framework group  C2V[C2(O),SGV(H2)]
 Deg. of freedom     2
 Full point group                 C2V     NOp   4
 Largest Abelian subgroup         C2V     NOp   4
 Largest concise Abelian subgroup C2      NOp   2
                         Standard orientation:                         
 ---------------------------------------------------------------------
 Center     Atomic      Atomic             Coordinates (Angstroms)
 Number     Number       Type             X           Y           Z
 ---------------------------------------------------------------------
      1          8           0        0.000000    0.000000    0.110119
      2          1           0        0.000000    0.778218   -0.440476
      3          1           0        0.000000   -0.778218   -0.440476
 ---------------------------------------------------------------------
 Rotational constants (GHZ):    931.2875686    413.9994811    286.5950209
 Standard basis: 6-31G (6D, 7F)
 There are     7 symmetry adapted cartesian basis functions of A1  symmetry.
 There are     0 symmetry adapted cartesian basis functions of A2  symmetry.
 There are     2 symmetry adapted cartesian basis functions of B1  symmetry.
 There are     4 symmetry adapted cartesian basis functions of B2  symmetry.
 There are     7 symmetry adapted basis functions of A1  symmetry.
 There are     0 symmetry adapted basis functions of A2  symmetry.
 There are     2 symmetry adapted basis functions of B1  symmetry.
 There are     4 symmetry adapted basis functions of B2  symmetry.
    13 basis functions,    30 primitive gaussians,    13 cartesian basis functions
     5 alpha electrons        5 beta electrons
       nuclear repulsion energy         9.2216178658 Hartrees.
 NAtoms=    3 NActive=    3 NUniq=    2 SFac= 2.25D+00 NAtFMM=   60 NAOKFM=F Big=F
 Integral buffers will be    131072 words long.
 Raffenetti 1 integral format.
 Two-electron integral symmetry is turned on.
 One-electron integrals computed using PRISM.
 NBasis=    13 RedAO= T EigKep=  1.17D-01  NBF=     7     0     2     4
 NBsUse=    13 1.00D-06 EigRej= -1.00D+00 NBFU=     7     0     2     4
 Lowest energy guess from the checkpoint file:  "H2O-0.chk"
 B after Tr=     0.000000    0.000000    0.000000
         Rot=    1.000000    0.000000    0.000000    0.000000 Ang=   0.00 deg.
 B after Tr=     0.000000    0.000000    0.000000
         Rot=    1.000000    0.000000    0.000000    0.000000 Ang=   0.00 deg.
 Initial guess orbital symmetries:
       Occupied  (A1) (B2) (A1) (B1) (A1)
       Virtual   (A1) (B2) (A1) (B1) (A1) (B2) (B2) (B2)
 Keep R1 ints in memory in symmetry-blocked form, NReq=829687.
 Requested convergence on RMS density matrix=1.00D-08 within 128 cycles.
 Requested convergence on MAX density matrix=1.00D-06.
 Requested convergence on             energy=1.00D-06.
 No special actions if energy rises.
 An orbital has undefined symmetry, so N**3 symmetry is turned off.
 SCF Done:  E(RHF) =  -75.9852308517     A.U. after    9 cycles
            NFock=  9  Conv=0.34D-08     -V/T= 1.9998
 Calling FoFJK, ICntrl=      2127 FMM=F ISym2X=1 I1Cent= 0 IOpClX= 0 NMat=1 NMatS=1 NMatT=0.
 ***** Axes restored to original set *****
 -------------------------------------------------------------------
 Center     Atomic                   Forces (Hartrees/Bohr)
 Number     Number              X              Y              Z
 -------------------------------------------------------------------
      1        8           0.000000000    0.000000000   -0.008451040
      2        1           0.000000000   -0.000154494    0.004225520
      3        1           0.000000000    0.000154494    0.004225520
 -------------------------------------------------------------------
 Cartesian Forces:  Max     0.008451040 RMS     0.003450891

 GradGradGradGradGradGradGradGradGradGradGradGradGradGradGradGradGradGrad
 Berny optimization.
 Using GEDIIS/GDIIS optimizer.
 FormGI is forming the generalized inverse of G from B-inverse, IUseBI=4.
 Internal  Forces:  Max     0.006053381 RMS     0.004075077
 Search for a local minimum.
 Step number   5 out of a maximum of   20
 All quantities printed in internal units (Hartrees-Bohrs-Radians)
 Mixed Optimization -- RFO/linear search
 Update second derivatives using D2CorX and points    4    3    5
 DE= -3.54D-02 DEPred=-1.16D-02 R= 3.04D+00
 TightC=F SS=  1.41D+00  RLast= 3.24D-01 DXNew= 8.4853D-01 9.7231D-01
 Trust test= 3.04D+00 RLast= 3.24D-01 DXMaxT set to 8.49D-01
 The second derivative matrix:
                          R1        R2        A1
           R1           4.60117
           R2          -3.72003   4.60117
           A1           0.04042   0.04042   0.17315
 ITU=  1  0  0  1
 Use linear search instead of GDIIS.
     Eigenvalues ---    0.16856   0.88572   8.32120
 RFO step:  Lambda=-2.73492715D-04 EMin= 1.68561788D-01
 Quartic linear search produced a step of -0.02981.
 Iteration  1 RMS(Cart)=  0.02116285 RMS(Int)=  0.00034097
 Iteration  2 RMS(Cart)=  0.00033443 RMS(Int)=  0.00000002
 Iteration  3 RMS(Cart)=  0.00000001 RMS(Int)=  0.00000000
 ClnCor:  largest displacement from symmetrization is 2.22D-16 for atom     3.
 Variable       Old X    -DE/DX   Delta X   Delta X   Delta X     New X
                                 (Linear)    (Quad)   (Total)
    R1        1.80147  -0.00257  -0.00663  -0.00047  -0.00711   1.79437
    R2        1.80147  -0.00257  -0.00663  -0.00047  -0.00711   1.79437
    A1        1.91010   0.00605   0.00231   0.03990   0.04221   1.95231
         Item               Value     Threshold  Converged?
 Maximum Force            0.006053     0.000450     NO 
 RMS     Force            0.004075     0.000300     NO 
 Maximum Displacement     0.023500     0.001800     NO 
 RMS     Displacement     0.021009     0.001200     NO 
 Predicted change in Energy=-1.174945D-04
 GradGradGradGradGradGradGradGradGradGradGradGradGradGradGradGradGradGrad

                          Input orientation:                          
 ---------------------------------------------------------------------
 Center     Atomic      Atomic             Coordinates (Angstroms)
 Number     Number       Type             X           Y           Z
 ---------------------------------------------------------------------
      1          8           0        0.000000    0.375588    0.016831
      2          1           0        0.000000    1.162138   -0.515110
      3          1           0        0.000000   -0.410961   -0.515110
 ---------------------------------------------------------------------
                    Distance matrix (angstroms):
                    1          2          3
     1  O    0.000000
     2  H    0.949537   0.000000
     3  H    0.949537   1.573099   0.000000
 Stoichiometry    H2O
 Framework group  C2V[C2(O),SGV(H2)]
 Deg. of freedom     2
 Full point group                 C2V     NOp   4
 Largest Abelian subgroup         C2V     NOp   4
 Largest concise Abelian subgroup C2      NOp   2
                         Standard orientation:                         
 ---------------------------------------------------------------------
 Center     Atomic      Atomic             Coordinates (Angstroms)
 Number     Number       Type             X           Y           Z
 ---------------------------------------------------------------------
      1          8           0        0.000000    0.000000    0.106388
      2          1           0        0.000000    0.786549   -0.425553
      3          1           0        0.000000   -0.786549   -0.425553
 ---------------------------------------------------------------------
 Rotational constants (GHZ):    997.7469173    405.2751991    288.2079162
 Standard basis: 6-31G (6D, 7F)
 There are     7 symmetry adapted cartesian basis functions of A1  symmetry.
 There are     0 symmetry adapted cartesian basis functions of A2  symmetry.
 There are     2 symmetry adapted cartesian basis functions of B1  symmetry.
 There are     4 symmetry adapted cartesian basis functions of B2  symmetry.
 There are     7 symmetry adapted basis functions of A1  symmetry.
 There are     0 symmetry adapted basis functions of A2  symmetry.
 There are     2 symmetry adapted basis functions of B1  symmetry.
 There are     4 symmetry adapted basis functions of B2  symmetry.
    13 basis functions,    30 primitive gaussians,    13 cartesian basis functions
     5 alpha electrons        5 beta electrons
       nuclear repulsion energy         9.2531916948 Hartrees.
 NAtoms=    3 NActive=    3 NUniq=    2 SFac= 2.25D+00 NAtFMM=   60 NAOKFM=F Big=F
 Integral buffers will be    131072 words long.
 Raffenetti 1 integral format.
 Two-electron integral symmetry is turned on.
 One-electron integrals computed using PRISM.
 NBasis=    13 RedAO= T EigKep=  1.17D-01  NBF=     7     0     2     4
 NBsUse=    13 1.00D-06 EigRej= -1.00D+00 NBFU=     7     0     2     4
 Initial guess from the checkpoint file:  "H2O-0.chk"
 B after Tr=     0.000000    0.000000    0.000000
         Rot=    1.000000    0.000000    0.000000    0.000000 Ang=   0.00 deg.
 Initial guess orbital symmetries:
       Occupied  (A1) (A1) (B2) (A1) (B1)
       Virtual   (A1) (A1) (A1) (A1) (B1) (B2) (B2) (B2)
 ExpMin= 1.61D-01 ExpMax= 5.48D+03 ExpMxC= 8.25D+02 IAcc=1 IRadAn=         1 AccDes= 0.00D+00
 Harris functional with IExCor=  205 and IRadAn=       1 diagonalized for initial guess.
 HarFok:  IExCor=  205 AccDes= 0.00D+00 IRadAn=         1 IDoV= 1 UseB2=F ITyADJ=14
 ICtDFT=  3500011 ScaDFX=  1.000000  1.000000  1.000000  1.000000
 FoFCou: FMM=F IPFlag=           0 FMFlag=      100000 FMFlg1=           0
         NFxFlg=           0 DoJE=T BraDBF=F KetDBF=T FulRan=T
         wScrn=  0.000000 ICntrl=     500 IOpCl=  0 I1Cent=   200000004 NGrid=           0
         NMat0=    1 NMatS0=      1 NMatT0=    0 NMatD0=    1 NMtDS0=    0 NMtDT0=    0
 Petite list used in FoFCou.
 Keep R1 ints in memory in symmetry-blocked form, NReq=829687.
 Requested convergence on RMS density matrix=1.00D-08 within 128 cycles.
 Requested convergence on MAX density matrix=1.00D-06.
 Requested convergence on             energy=1.00D-06.
 No special actions if energy rises.
 SCF Done:  E(RHF) =  -75.9853565935     A.U. after    9 cycles
            NFock=  9  Conv=0.99D-09     -V/T= 1.9996
 Calling FoFJK, ICntrl=      2127 FMM=F ISym2X=1 I1Cent= 0 IOpClX= 0 NMat=1 NMatS=1 NMatT=0.
 ***** Axes restored to original set *****
 -------------------------------------------------------------------
 Center     Atomic                   Forces (Hartrees/Bohr)
 Number     Number              X              Y              Z
 -------------------------------------------------------------------
      1        8           0.000000000    0.000000000    0.000751609
      2        1           0.000000000   -0.000385691   -0.000375805
      3        1           0.000000000    0.000385691   -0.000375805
 -------------------------------------------------------------------
 Cartesian Forces:  Max     0.000751609 RMS     0.000356665

 GradGradGradGradGradGradGradGradGradGradGradGradGradGradGradGradGradGrad
 Berny optimization.
 Using GEDIIS/GDIIS optimizer.
 FormGI is forming the generalized inverse of G from B-inverse, IUseBI=4.
 Internal  Forces:  Max     0.000946287 RMS     0.000553535
 Search for a local minimum.
 Step number   6 out of a maximum of   20
 All quantities printed in internal units (Hartrees-Bohrs-Radians)
 Mixed Optimization -- En-DIIS/RFO-DIIS
 Update second derivatives using D2CorX and points    4    3    5    6
 DE= -1.26D-04 DEPred=-1.17D-04 R= 1.07D+00
 TightC=F SS=  1.41D+00  RLast= 4.34D-02 DXNew= 1.4270D+00 1.3018D-01
 Trust test= 1.07D+00 RLast= 4.34D-02 DXMaxT set to 8.49D-01
 The second derivative matrix:
                          R1        R2        A1
           R1           4.56650
           R2          -3.75469   4.56650
           A1           0.07845   0.07845   0.19223
 ITU=  1  1  0  0
 Use linear search instead of GDIIS.
     Eigenvalues ---    0.17297   0.83108   8.32120
 RFO step:  Lambda=-4.06599270D-07 EMin= 1.72967521D-01
 Quartic linear search produced a step of -0.11822.
 Iteration  1 RMS(Cart)=  0.00274607 RMS(Int)=  0.00000521
 Iteration  2 RMS(Cart)=  0.00000491 RMS(Int)=  0.00000000
 Iteration  3 RMS(Cart)=  0.00000000 RMS(Int)=  0.00000000
 ClnCor:  largest displacement from symmetrization is 1.11D-16 for atom     3.
 Variable       Old X    -DE/DX   Delta X   Delta X   Delta X     New X
                                 (Linear)    (Quad)   (Total)
    R1        1.79437  -0.00011   0.00084  -0.00046   0.00038   1.79475
    R2        1.79437  -0.00011   0.00084  -0.00046   0.00038   1.79475
    A1        1.95231  -0.00095  -0.00499  -0.00032  -0.00531   1.94700
         Item               Value     Threshold  Converged?
 Maximum Force            0.000946     0.000450     NO 
 RMS     Force            0.000554     0.000300     NO 
 Maximum Displacement     0.002773     0.001800     NO 
 RMS     Displacement     0.002748     0.001200     NO 
 Predicted change in Energy=-2.431180D-06
 GradGradGradGradGradGradGradGradGradGradGradGradGradGradGradGradGradGrad

                          Input orientation:                          
 ---------------------------------------------------------------------
 Center     Atomic      Atomic             Coordinates (Angstroms)
 Number     Number       Type             X           Y           Z
 ---------------------------------------------------------------------
      1          8           0        0.000000    0.375588    0.018298
      2          1           0        0.000000    1.160889   -0.515844
      3          1           0        0.000000   -0.409713   -0.515844
 ---------------------------------------------------------------------
                    Distance matrix (angstroms):
                    1          2          3
     1  O    0.000000
     2  H    0.949740   0.000000
     3  H    0.949740   1.570602   0.000000
 Stoichiometry    H2O
 Framework group  C2V[C2(O),SGV(H2)]
 Deg. of freedom     2
 Full point group                 C2V     NOp   4
 Largest Abelian subgroup         C2V     NOp   4
 Largest concise Abelian subgroup C2      NOp   2
                         Standard orientation:                         
 ---------------------------------------------------------------------
 Center     Atomic      Atomic             Coordinates (Angstroms)
 Number     Number       Type             X           Y           Z
 ---------------------------------------------------------------------
      1          8           0        0.000000    0.000000    0.106828
      2          1           0        0.000000    0.785301   -0.427314
      3          1           0        0.000000   -0.785301   -0.427314
 ---------------------------------------------------------------------
 Rotational constants (GHZ):    989.5415443    406.5647225    288.1676653
 Standard basis: 6-31G (6D, 7F)
 There are     7 symmetry adapted cartesian basis functions of A1  symmetry.
 There are     0 symmetry adapted cartesian basis functions of A2  symmetry.
 There are     2 symmetry adapted cartesian basis functions of B1  symmetry.
 There are     4 symmetry adapted cartesian basis functions of B2  symmetry.
 There are     7 symmetry adapted basis functions of A1  symmetry.
 There are     0 symmetry adapted basis functions of A2  symmetry.
 There are     2 symmetry adapted basis functions of B1  symmetry.
 There are     4 symmetry adapted basis functions of B2  symmetry.
    13 basis functions,    30 primitive gaussians,    13 cartesian basis functions
     5 alpha electrons        5 beta electrons
       nuclear repulsion energy         9.2518277016 Hartrees.
 NAtoms=    3 NActive=    3 NUniq=    2 SFac= 2.25D+00 NAtFMM=   60 NAOKFM=F Big=F
 Integral buffers will be    131072 words long.
 Raffenetti 1 integral format.
 Two-electron integral symmetry is turned on.
 One-electron integrals computed using PRISM.
 NBasis=    13 RedAO= T EigKep=  1.17D-01  NBF=     7     0     2     4
 NBsUse=    13 1.00D-06 EigRej= -1.00D+00 NBFU=     7     0     2     4
 Initial guess from the checkpoint file:  "H2O-0.chk"
 B after Tr=     0.000000    0.000000    0.000000
         Rot=    1.000000    0.000000    0.000000    0.000000 Ang=   0.00 deg.
 Initial guess orbital symmetries:
       Occupied  (A1) (A1) (B2) (A1) (B1)
       Virtual   (A1) (A1) (A1) (A1) (B1) (B2) (B2) (B2)
 Keep R1 ints in memory in symmetry-blocked form, NReq=829687.
 Requested convergence on RMS density matrix=1.00D-08 within 128 cycles.
 Requested convergence on MAX density matrix=1.00D-06.
 Requested convergence on             energy=1.00D-06.
 No special actions if energy rises.
 SCF Done:  E(RHF) =  -75.9853591394     A.U. after    7 cycles
            NFock=  7  Conv=0.63D-08     -V/T= 1.9996
 Calling FoFJK, ICntrl=      2127 FMM=F ISym2X=1 I1Cent= 0 IOpClX= 0 NMat=1 NMatS=1 NMatT=0.
 ***** Axes restored to original set *****
 -------------------------------------------------------------------
 Center     Atomic                   Forces (Hartrees/Bohr)
 Number     Number              X              Y              Z
 -------------------------------------------------------------------
      1        8           0.000000000    0.000000000   -0.000101087
      2        1           0.000000000   -0.000119101    0.000050544
      3        1           0.000000000    0.000119101    0.000050544
 -------------------------------------------------------------------
 Cartesian Forces:  Max     0.000119101 RMS     0.000069680

 GradGradGradGradGradGradGradGradGradGradGradGradGradGradGradGradGradGrad
 Berny optimization.
 Using GEDIIS/GDIIS optimizer.
 FormGI is forming the generalized inverse of G from B-inverse, IUseBI=4.
 Internal  Forces:  Max     0.000126906 RMS     0.000106855
 Search for a local minimum.
 Step number   7 out of a maximum of   20
 All quantities printed in internal units (Hartrees-Bohrs-Radians)
 Mixed Optimization -- En-DIIS/RFO-DIIS
 Swapping is turned off.
 Update second derivatives using D2CorX and points    3    5    6    7
 DE= -2.55D-06 DEPred=-2.43D-06 R= 1.05D+00
 TightC=F SS=  1.41D+00  RLast= 5.34D-03 DXNew= 1.4270D+00 1.6018D-02
 Trust test= 1.05D+00 RLast= 5.34D-03 DXMaxT set to 8.49D-01
 The second derivative matrix:
                          R1        R2        A1
           R1           4.55841
           R2          -3.76279   4.55841
           A1           0.05386   0.05386   0.17738
 ITU=  1  1  1  0
     Eigenvalues ---    0.16814   0.80486   8.32120
 En-DIIS/RFO-DIIS IScMMF=        0 using points:     7    6
 RFO step:  Lambda=-3.88973358D-08.
 DidBck=F Rises=F RFO-DIIS coefs:    1.02982   -0.02982
 Iteration  1 RMS(Cart)=  0.00016905 RMS(Int)=  0.00000001
 Iteration  2 RMS(Cart)=  0.00000001 RMS(Int)=  0.00000000
 ClnCor:  largest displacement from symmetrization is 1.12D-16 for atom     1.
 Variable       Old X    -DE/DX   Delta X   Delta X   Delta X     New X
                                 (Linear)    (Quad)   (Total)
    R1        1.79475  -0.00013   0.00001  -0.00016  -0.00015   1.79460
    R2        1.79475  -0.00013   0.00001  -0.00016  -0.00015   1.79460
    A1        1.94700  -0.00005  -0.00016  -0.00001  -0.00016   1.94684
         Item               Value     Threshold  Converged?
 Maximum Force            0.000127     0.000450     YES
 RMS     Force            0.000107     0.000300     YES
 Maximum Displacement     0.000206     0.001800     YES
 RMS     Displacement     0.000169     0.001200     YES
 Predicted change in Energy=-2.255151D-08
 Optimization completed.
    -- Stationary point found.
                           ----------------------------
                           !   Optimized Parameters   !
                           ! (Angstroms and Degrees)  !
 --------------------------                            --------------------------
 ! Name  Definition              Value          Derivative Info.                !
 --------------------------------------------------------------------------------
 ! R1    R(1,2)                  0.9497         -DE/DX =   -0.0001              !
 ! R2    R(1,3)                  0.9497         -DE/DX =   -0.0001              !
 ! A1    A(2,1,3)              111.5549         -DE/DX =    0.0                 !
 --------------------------------------------------------------------------------
 GradGradGradGradGradGradGradGradGradGradGradGradGradGradGradGradGradGrad

                          Input orientation:                          
 ---------------------------------------------------------------------
 Center     Atomic      Atomic             Coordinates (Angstroms)
 Number     Number       Type             X           Y           Z
 ---------------------------------------------------------------------
      1          8           0        0.000000    0.375588    0.018298
      2          1           0        0.000000    1.160889   -0.515844
      3          1           0        0.000000   -0.409713   -0.515844
 ---------------------------------------------------------------------
                    Distance matrix (angstroms):
                    1          2          3
     1  O    0.000000
     2  H    0.949740   0.000000
     3  H    0.949740   1.570602   0.000000
 Stoichiometry    H2O
 Framework group  C2V[C2(O),SGV(H2)]
 Deg. of freedom     2
 Full point group                 C2V     NOp   4
 Largest Abelian subgroup         C2V     NOp   4
 Largest concise Abelian subgroup C2      NOp   2
                         Standard orientation:                         
 ---------------------------------------------------------------------
 Center     Atomic      Atomic             Coordinates (Angstroms)
 Number     Number       Type             X           Y           Z
 ---------------------------------------------------------------------
      1          8           0        0.000000    0.000000    0.106828
      2          1           0        0.000000    0.785301   -0.427314
      3          1           0        0.000000   -0.785301   -0.427314
 ---------------------------------------------------------------------
 Rotational constants (GHZ):    989.5415443    406.5647225    288.1676653

 **********************************************************************

            Population analysis using the SCF density.

 **********************************************************************

 Orbital symmetries:
       Occupied  (A1) (A1) (B2) (A1) (B1)
       Virtual   (A1) (B2) (B2) (A1) (B1) (A1) (B2) (A1)
 The electronic state is 1-A1.
 Alpha  occ. eigenvalues --  -20.55350  -1.35246  -0.72633  -0.54820  -0.49829
 Alpha virt. eigenvalues --    0.20696   0.30288   1.10548   1.16101   1.16717
 Alpha virt. eigenvalues --    1.20465   1.38892   1.67607
          Condensed to atoms (all electrons):
               1          2          3
     1  O    8.283461   0.263919   0.263919
     2  H    0.263919   0.358334  -0.027901
     3  H    0.263919  -0.027901   0.358334
 Mulliken charges:
               1
     1  O   -0.811298
     2  H    0.405649
     3  H    0.405649
 Sum of Mulliken charges =   0.00000
 Mulliken charges with hydrogens summed into heavy atoms:
               1
     1  O    0.000000
 Electronic spatial extent (au):  <R**2>=             18.9670
 Charge=              0.0000 electrons
 Dipole moment (field-independent basis, Debye):
    X=              0.0000    Y=              0.0000    Z=             -2.5004  Tot=              2.5004
 Quadrupole moment (field-independent basis, Debye-Ang):
   XX=             -7.1949   YY=             -3.8969   ZZ=             -6.3025
   XY=              0.0000   XZ=              0.0000   YZ=              0.0000
 Traceless Quadrupole moment (field-independent basis, Debye-Ang):
   XX=             -1.3968   YY=              1.9012   ZZ=             -0.5044
   XY=              0.0000   XZ=              0.0000   YZ=              0.0000
 Octapole moment (field-independent basis, Debye-Ang**2):
  XXX=              0.0000  YYY=              0.0000  ZZZ=             -1.4810  XYY=              0.0000
  XXY=              0.0000  XXZ=             -0.4283  XZZ=              0.0000  YZZ=              0.0000
  YYZ=             -1.3170  XYZ=              0.0000
 Hexadecapole moment (field-independent basis, Debye-Ang**3):
 XXXX=             -5.1688 YYYY=             -5.3084 ZZZZ=             -6.0232 XXXY=              0.0000
 XXXZ=              0.0000 YYYX=              0.0000 YYYZ=              0.0000 ZZZX=              0.0000
 ZZZY=              0.0000 XXYY=             -2.0286 XXZZ=             -1.8990 YYZZ=             -1.6662
 XXYZ=              0.0000 YYXZ=              0.0000 ZZXY=              0.0000
 N-N= 9.251827701597D+00 E-N=-1.991310145962D+02  KE= 7.601419337231D+01
 Symmetry A1   KE= 6.795826048438D+01
 Symmetry A2   KE= 0.000000000000D+00
 Symmetry B1   KE= 4.555282989564D+00
 Symmetry B2   KE= 3.500649898375D+00
 1\1\GINC-QTC\FOpt\RHF\6-31G\H2O1\ALUMNO\14-Jun-2024\0\\# opt hf/6-31g 
 geom=connectivity\\Title Card Required\\0,1\O,0.,0.37558843,0.01829828
 19\H,0.,1.1608894878,-0.515843701\H,0.,-0.4097126278,-0.515843701\\Ver
 sion=EM64L-G09RevD.01\State=1-A1\HF=-75.9853591\RMSD=6.310e-09\RMSF=6.
 968e-05\Dipole=0.,0.,-0.9837476\Quadrupole=-1.0384819,1.4134998,-0.375
 0179,0.,0.,0.\PG=C02V [C2(O1),SGV(H2)]\\@


 TO DRY ONE'S EYES AND LAUGH AT A FALL
 AND BAFFLED, GET UP AND BEGIN AGAIN.
           R. BROWNING
 Job cpu time:       0 days  0 hours  0 minutes  2.4 seconds.
 File lengths (MBytes):  RWF=      5 Int=      0 D2E=      0 Chk=      1 Scr=      1
 Normal termination of Gaussian 09 at Fri Jun 14 18:25:16 2024.
