 Entering Gaussian System, Link 0=g09
 Initial command:
 /usr/local/QComp/G09_RevD01/g09/l1.exe "/home/alumno/Documents/TFM/estructuras-scan-a-mano/Gau-2601.inp" -scrdir="/home/alumno/Documents/TFM/estructuras-scan-a-mano/"
 Entering Link 1 = /usr/local/QComp/G09_RevD01/g09/l1.exe PID=      2602.
  
 Copyright (c) 1988,1990,1992,1993,1995,1998,2003,2009,2013,
            Gaussian, Inc.  All Rights Reserved.
  
 This is part of the Gaussian(R) 09 program.  It is based on
 the Gaussian(R) 03 system (copyright 2003, Gaussian, Inc.),
 the Gaussian(R) 98 system (copyright 1998, Gaussian, Inc.),
 the Gaussian(R) 94 system (copyright 1995, Gaussian, Inc.),
 the Gaussian 92(TM) system (copyright 1992, Gaussian, Inc.),
 the Gaussian 90(TM) system (copyright 1990, Gaussian, Inc.),
 the Gaussian 88(TM) system (copyright 1988, Gaussian, Inc.),
 the Gaussian 86(TM) system (copyright 1986, Carnegie Mellon
 University), and the Gaussian 82(TM) system (copyright 1983,
 Carnegie Mellon University). Gaussian is a federally registered
 trademark of Gaussian, Inc.
  
 This software contains proprietary and confidential information,
 including trade secrets, belonging to Gaussian, Inc.
  
 This software is provided under written license and may be
 used, copied, transmitted, or stored only in accord with that
 written license.
  
 The following legend is applicable only to US Government
 contracts under FAR:
  
                    RESTRICTED RIGHTS LEGEND
  
 Use, reproduction and disclosure by the US Government is
 subject to restrictions as set forth in subparagraphs (a)
 and (c) of the Commercial Computer Software - Restricted
 Rights clause in FAR 52.227-19.
  
 Gaussian, Inc.
 340 Quinnipiac St., Bldg. 40, Wallingford CT 06492
  
  
 ---------------------------------------------------------------
 Warning -- This program may not be used in any manner that
 competes with the business of Gaussian, Inc. or will provide
 assistance to any competitor of Gaussian, Inc.  The licensee
 of this program is prohibited from giving any competitor of
 Gaussian, Inc. access to this program.  By using this program,
 the user acknowledges that Gaussian, Inc. is engaged in the
 business of creating and licensing software in the field of
 computational chemistry and represents and warrants to the
 licensee that it is not a competitor of Gaussian, Inc. and that
 it will not use this program in any manner prohibited above.
 ---------------------------------------------------------------
  

 Cite this work as:
 Gaussian 09, Revision D.01,
 M. J. Frisch, G. W. Trucks, H. B. Schlegel, G. E. Scuseria, 
 M. A. Robb, J. R. Cheeseman, G. Scalmani, V. Barone, B. Mennucci, 
 G. A. Petersson, H. Nakatsuji, M. Caricato, X. Li, H. P. Hratchian, 
 A. F. Izmaylov, J. Bloino, G. Zheng, J. L. Sonnenberg, M. Hada, 
 M. Ehara, K. Toyota, R. Fukuda, J. Hasegawa, M. Ishida, T. Nakajima, 
 Y. Honda, O. Kitao, H. Nakai, T. Vreven, J. A. Montgomery, Jr., 
 J. E. Peralta, F. Ogliaro, M. Bearpark, J. J. Heyd, E. Brothers, 
 K. N. Kudin, V. N. Staroverov, T. Keith, R. Kobayashi, J. Normand, 
 K. Raghavachari, A. Rendell, J. C. Burant, S. S. Iyengar, J. Tomasi, 
 M. Cossi, N. Rega, J. M. Millam, M. Klene, J. E. Knox, J. B. Cross, 
 V. Bakken, C. Adamo, J. Jaramillo, R. Gomperts, R. E. Stratmann, 
 O. Yazyev, A. J. Austin, R. Cammi, C. Pomelli, J. W. Ochterski, 
 R. L. Martin, K. Morokuma, V. G. Zakrzewski, G. A. Voth, 
 P. Salvador, J. J. Dannenberg, S. Dapprich, A. D. Daniels, 
 O. Farkas, J. B. Foresman, J. V. Ortiz, J. Cioslowski, 
 and D. J. Fox, Gaussian, Inc., Wallingford CT, 2013.
 
  
 -----  Compilado por  -----------------------------------------
  
  Servicio de Calculo | Servicio de Informatica U. de Valencia
     calculo@uv.es    |  E-46100 Burjassot (Valencia) SPAIN
  
 ---------------------------------------------------------------
  
 ******************************************
 Gaussian 09:  EM64L-G09RevD.01 24-Apr-2013
                14-Jun-2024 
 ******************************************
 %chk=H2O-3.chk
 --------------------------------
 # opt hf/6-31g geom=connectivity
 --------------------------------
 1/18=20,19=15,38=1,57=2/1,3;
 2/9=110,12=2,17=6,18=5,40=1/2;
 3/5=1,6=6,11=9,16=1,25=1,30=1,71=1/1,2,3;
 4//1;
 5/5=2,38=5/2;
 6/7=2,8=2,9=2,10=2,28=1/1;
 7//1,2,3,16;
 1/18=20,19=15/3(2);
 2/9=110/2;
 99//99;
 2/9=110/2;
 3/5=1,6=6,11=9,16=1,25=1,30=1,71=1/1,2,3;
 4/5=5,16=3,69=1/1;
 5/5=2,38=5/2;
 7//1,2,3,16;
 1/18=20,19=15/3(-5);
 2/9=110/2;
 6/7=2,8=2,9=2,10=2,19=2,28=1/1;
 99/9=1/99;
 -------------------
 Title Card Required
 -------------------
 Symbolic Z-matrix:
 Charge =  0 Multiplicity = 1
 O                     0.       -0.84916   0.72068 
 H                     0.        0.78384  -0.43402 
 H                     0.       -2.48215  -0.43402 
 

 GradGradGradGradGradGradGradGradGradGradGradGradGradGradGradGradGradGrad
 Berny optimization.
 Initialization pass.
                           ----------------------------
                           !    Initial Parameters    !
                           ! (Angstroms and Degrees)  !
 --------------------------                            --------------------------
 ! Name  Definition              Value          Derivative Info.                !
 --------------------------------------------------------------------------------
 ! R1    R(1,2)                  2.0            estimate D2E/DX2                !
 ! R2    R(1,3)                  2.0            estimate D2E/DX2                !
 ! A1    A(2,1,3)              109.4712         estimate D2E/DX2                !
 --------------------------------------------------------------------------------
 Trust Radius=3.00D-01 FncErr=1.00D-07 GrdErr=1.00D-07
 Number of steps in this run=     20 maximum allowed number of steps=    100.
 GradGradGradGradGradGradGradGradGradGradGradGradGradGradGradGradGradGrad

                          Input orientation:                          
 ---------------------------------------------------------------------
 Center     Atomic      Atomic             Coordinates (Angstroms)
 Number     Number       Type             X           Y           Z
 ---------------------------------------------------------------------
      1          8           0        0.000000   -0.849156    0.720679
      2          1           0        0.000000    0.783837   -0.434021
      3          1           0        0.000000   -2.482150   -0.434021
 ---------------------------------------------------------------------
                    Distance matrix (angstroms):
                    1          2          3
     1  O    0.000000
     2  H    2.000000   0.000000
     3  H    2.000000   3.265986   0.000000
 Stoichiometry    H2O
 Framework group  C2V[C2(O),SGV(H2)]
 Deg. of freedom     2
 Full point group                 C2V     NOp   4
 Largest Abelian subgroup         C2V     NOp   4
 Largest concise Abelian subgroup C2      NOp   2
                         Standard orientation:                         
 ---------------------------------------------------------------------
 Center     Atomic      Atomic             Coordinates (Angstroms)
 Number     Number       Type             X           Y           Z
 ---------------------------------------------------------------------
      1          8           0        0.000000    0.000000    0.230940
      2          1           0        0.000000    1.632993   -0.923760
      3          1           0        0.000000   -1.632993   -0.923760
 ---------------------------------------------------------------------
 Rotational constants (GHZ):    211.7428310     94.0228327     65.1108451
 Standard basis: 6-31G (6D, 7F)
 There are     7 symmetry adapted cartesian basis functions of A1  symmetry.
 There are     0 symmetry adapted cartesian basis functions of A2  symmetry.
 There are     2 symmetry adapted cartesian basis functions of B1  symmetry.
 There are     4 symmetry adapted cartesian basis functions of B2  symmetry.
 There are     7 symmetry adapted basis functions of A1  symmetry.
 There are     0 symmetry adapted basis functions of A2  symmetry.
 There are     2 symmetry adapted basis functions of B1  symmetry.
 There are     4 symmetry adapted basis functions of B2  symmetry.
    13 basis functions,    30 primitive gaussians,    13 cartesian basis functions
     5 alpha electrons        5 beta electrons
       nuclear repulsion energy         4.3954444443 Hartrees.
 NAtoms=    3 NActive=    3 NUniq=    2 SFac= 2.25D+00 NAtFMM=   60 NAOKFM=F Big=F
 Integral buffers will be    131072 words long.
 Raffenetti 1 integral format.
 Two-electron integral symmetry is turned on.
 One-electron integrals computed using PRISM.
 NBasis=    13 RedAO= T EigKep=  2.66D-01  NBF=     7     0     2     4
 NBsUse=    13 1.00D-06 EigRej= -1.00D+00 NBFU=     7     0     2     4
 ExpMin= 1.61D-01 ExpMax= 5.48D+03 ExpMxC= 8.25D+02 IAcc=1 IRadAn=         1 AccDes= 0.00D+00
 Harris functional with IExCor=  205 and IRadAn=       1 diagonalized for initial guess.
 HarFok:  IExCor=  205 AccDes= 0.00D+00 IRadAn=         1 IDoV= 1 UseB2=F ITyADJ=14
 ICtDFT=  3500011 ScaDFX=  1.000000  1.000000  1.000000  1.000000
 FoFCou: FMM=F IPFlag=           0 FMFlag=      100000 FMFlg1=           0
         NFxFlg=           0 DoJE=T BraDBF=F KetDBF=T FulRan=T
         wScrn=  0.000000 ICntrl=     500 IOpCl=  0 I1Cent=   200000004 NGrid=           0
         NMat0=    1 NMatS0=      1 NMatT0=    0 NMatD0=    1 NMtDS0=    0 NMtDT0=    0
 Petite list used in FoFCou.
 Initial guess orbital symmetries:
       Occupied  (A1) (A1) (B2) (A1) (B1)
       Virtual   (A1) (B2) (A1) (B1) (B2) (A1) (B2) (A1)
 The electronic state of the initial guess is 1-A1.
 Keep R1 ints in memory in symmetry-blocked form, NReq=829359.
 Requested convergence on RMS density matrix=1.00D-08 within 128 cycles.
 Requested convergence on MAX density matrix=1.00D-06.
 Requested convergence on             energy=1.00D-06.
 No special actions if energy rises.
 SCF Done:  E(RHF) =  -75.5564079383     A.U. after   14 cycles
            NFock= 14  Conv=0.87D-08     -V/T= 2.0104

 **********************************************************************

            Population analysis using the SCF density.

 **********************************************************************

 Orbital symmetries:
       Occupied  (A1) (A1) (B1) (A1) (B2)
       Virtual   (A1) (B2) (A1) (B2) (B1) (A1) (B2) (A1)
 The electronic state is 1-A1.
 Alpha  occ. eigenvalues --  -20.67210  -1.19503  -0.50873  -0.42096  -0.41084
 Alpha virt. eigenvalues --   -0.04895   0.00664   0.95255   1.01047   1.15932
 Alpha virt. eigenvalues --    1.21122   1.26724   1.36427
          Condensed to atoms (all electrons):
               1          2          3
     1  O    8.060584   0.143135   0.143135
     2  H    0.143135   0.686501  -0.003063
     3  H    0.143135  -0.003063   0.686501
 Mulliken charges:
               1
     1  O   -0.346854
     2  H    0.173427
     3  H    0.173427
 Sum of Mulliken charges =   0.00000
 Mulliken charges with hydrogens summed into heavy atoms:
               1
     1  O    0.000000
 Electronic spatial extent (au):  <R**2>=             38.6331
 Charge=              0.0000 electrons
 Dipole moment (field-independent basis, Debye):
    X=              0.0000    Y=              0.0000    Z=             -2.1690  Tot=              2.1690
 Quadrupole moment (field-independent basis, Debye-Ang):
   XX=             -8.5251   YY=             -1.5839   ZZ=             -5.9899
   XY=              0.0000   XZ=              0.0000   YZ=              0.0000
 Traceless Quadrupole moment (field-independent basis, Debye-Ang):
   XX=             -3.1588   YY=              3.7824   ZZ=             -0.6236
   XY=              0.0000   XZ=              0.0000   YZ=              0.0000
 Octapole moment (field-independent basis, Debye-Ang**2):
  XXX=              0.0000  YYY=              0.0000  ZZZ=              0.2554  XYY=              0.0000
  XXY=              0.0000  XXZ=              0.6763  XZZ=              0.0000  YZZ=              0.0000
  YYZ=             -5.5313  XYZ=              0.0000
 Hexadecapole moment (field-independent basis, Debye-Ang**3):
 XXXX=             -7.0039 YYYY=            -20.5580 ZZZZ=            -16.6765 XXXY=              0.0000
 XXXZ=              0.0000 YYYX=              0.0000 YYYZ=              0.0000 ZZZX=              0.0000
 ZZZY=              0.0000 XXYY=             -7.8517 XXZZ=             -4.3322 YYZZ=             -3.3795
 XXYZ=              0.0000 YYXZ=              0.0000 ZZXY=              0.0000
 N-N= 4.395444444254D+00 E-N=-1.882646209139D+02  KE= 7.477623159148D+01
 Symmetry A1   KE= 6.750553905975D+01
 Symmetry A2   KE= 0.000000000000D+00
 Symmetry B1   KE= 4.927202851481D+00
 Symmetry B2   KE= 2.343489680251D+00
 Calling FoFJK, ICntrl=      2127 FMM=F ISym2X=1 I1Cent= 0 IOpClX= 0 NMat=1 NMatS=1 NMatT=0.
 ***** Axes restored to original set *****
 -------------------------------------------------------------------
 Center     Atomic                   Forces (Hartrees/Bohr)
 Number     Number              X              Y              Z
 -------------------------------------------------------------------
      1        8           0.000000000    0.000000000   -0.099069617
      2        1           0.000000000   -0.077578736    0.049534808
      3        1           0.000000000    0.077578736    0.049534808
 -------------------------------------------------------------------
 Cartesian Forces:  Max     0.099069617 RMS     0.054527367

 GradGradGradGradGradGradGradGradGradGradGradGradGradGradGradGradGradGrad
 Berny optimization.
 FormGI is forming the generalized inverse of G from B-inverse, IUseBI=4.
 Internal  Forces:  Max     0.091941707 RMS     0.075666463
 Search for a local minimum.
 Step number   1 out of a maximum of   20
 All quantities printed in internal units (Hartrees-Bohrs-Radians)
 Mixed Optimization -- RFO/linear search
 Second derivative matrix not updated -- first step.
 The second derivative matrix:
                          R1        R2        A1
           R1           0.04307
           R2           0.00000   0.04307
           A1           0.00000   0.00000   0.16000
 ITU=  0
     Eigenvalues ---    0.04307   0.04307   0.16000
 RFO step:  Lambda=-1.10843261D-01 EMin= 4.30660311D-02
 Linear search not attempted -- first point.
 Maximum step size (   0.300) exceeded in Quadratic search.
    -- Step size scaled by   0.354
 Iteration  1 RMS(Cart)=  0.15732734 RMS(Int)=  0.00967403
 Iteration  2 RMS(Cart)=  0.00792270 RMS(Int)=  0.00000235
 Iteration  3 RMS(Cart)=  0.00000458 RMS(Int)=  0.00000000
 Iteration  4 RMS(Cart)=  0.00000000 RMS(Int)=  0.00000000
 ClnCor:  largest displacement from symmetrization is 9.16D-16 for atom     3.
 Variable       Old X    -DE/DX   Delta X   Delta X   Delta X     New X
                                 (Linear)    (Quad)   (Total)
    R1        3.77945  -0.09194   0.00000  -0.21159  -0.21159   3.56786
    R2        3.77945  -0.09194   0.00000  -0.21159  -0.21159   3.56786
    A1        1.91063  -0.01642   0.00000  -0.02148  -0.02148   1.88916
         Item               Value     Threshold  Converged?
 Maximum Force            0.091942     0.000450     NO 
 RMS     Force            0.075666     0.000300     NO 
 Maximum Displacement     0.195048     0.001800     NO 
 RMS     Displacement     0.164932     0.001200     NO 
 Predicted change in Energy=-3.729523D-02
 GradGradGradGradGradGradGradGradGradGradGradGradGradGradGradGradGradGrad

                          Input orientation:                          
 ---------------------------------------------------------------------
 Center     Atomic      Atomic             Coordinates (Angstroms)
 Number     Number       Type             X           Y           Z
 ---------------------------------------------------------------------
      1          8           0        0.000000   -0.849156    0.688576
      2          1           0        0.000000    0.680622   -0.417970
      3          1           0        0.000000   -2.378935   -0.417970
 ---------------------------------------------------------------------
                    Distance matrix (angstroms):
                    1          2          3
     1  O    0.000000
     2  H    1.888033   0.000000
     3  H    1.888033   3.059557   0.000000
 Stoichiometry    H2O
 Framework group  C2V[C2(O),SGV(H2)]
 Deg. of freedom     2
 Full point group                 C2V     NOp   4
 Largest Abelian subgroup         C2V     NOp   4
 Largest concise Abelian subgroup C2      NOp   2
                         Standard orientation:                         
 ---------------------------------------------------------------------
 Center     Atomic      Atomic             Coordinates (Angstroms)
 Number     Number       Type             X           Y           Z
 ---------------------------------------------------------------------
      1          8           0        0.000000    0.000000    0.221309
      2          1           0        0.000000    1.529778   -0.885237
      3          1           0        0.000000   -1.529778   -0.885237
 ---------------------------------------------------------------------
 Rotational constants (GHZ):    230.5728781    107.1383575     73.1488824
 Standard basis: 6-31G (6D, 7F)
 There are     7 symmetry adapted cartesian basis functions of A1  symmetry.
 There are     0 symmetry adapted cartesian basis functions of A2  symmetry.
 There are     2 symmetry adapted cartesian basis functions of B1  symmetry.
 There are     4 symmetry adapted cartesian basis functions of B2  symmetry.
 There are     7 symmetry adapted basis functions of A1  symmetry.
 There are     0 symmetry adapted basis functions of A2  symmetry.
 There are     2 symmetry adapted basis functions of B1  symmetry.
 There are     4 symmetry adapted basis functions of B2  symmetry.
    13 basis functions,    30 primitive gaussians,    13 cartesian basis functions
     5 alpha electrons        5 beta electrons
       nuclear repulsion energy         4.6574340414 Hartrees.
 NAtoms=    3 NActive=    3 NUniq=    2 SFac= 2.25D+00 NAtFMM=   60 NAOKFM=F Big=F
 Integral buffers will be    131072 words long.
 Raffenetti 1 integral format.
 Two-electron integral symmetry is turned on.
 One-electron integrals computed using PRISM.
 NBasis=    13 RedAO= T EigKep=  2.58D-01  NBF=     7     0     2     4
 NBsUse=    13 1.00D-06 EigRej= -1.00D+00 NBFU=     7     0     2     4
 Initial guess from the checkpoint file:  "H2O-3.chk"
 B after Tr=     0.000000    0.000000    0.000000
         Rot=    1.000000    0.000000    0.000000    0.000000 Ang=   0.00 deg.
 Initial guess orbital symmetries:
       Occupied  (A1) (A1) (B1) (A1) (B2)
       Virtual   (A1) (A1) (A1) (A1) (B1) (B2) (B2) (B2)
 ExpMin= 1.61D-01 ExpMax= 5.48D+03 ExpMxC= 8.25D+02 IAcc=1 IRadAn=         1 AccDes= 0.00D+00
 Harris functional with IExCor=  205 and IRadAn=       1 diagonalized for initial guess.
 HarFok:  IExCor=  205 AccDes= 0.00D+00 IRadAn=         1 IDoV= 1 UseB2=F ITyADJ=14
 ICtDFT=  3500011 ScaDFX=  1.000000  1.000000  1.000000  1.000000
 FoFCou: FMM=F IPFlag=           0 FMFlag=      100000 FMFlg1=           0
         NFxFlg=           0 DoJE=T BraDBF=F KetDBF=T FulRan=T
         wScrn=  0.000000 ICntrl=     500 IOpCl=  0 I1Cent=   200000004 NGrid=           0
         NMat0=    1 NMatS0=      1 NMatT0=    0 NMatD0=    1 NMtDS0=    0 NMtDT0=    0
 Petite list used in FoFCou.
 Keep R1 ints in memory in symmetry-blocked form, NReq=829417.
 Requested convergence on RMS density matrix=1.00D-08 within 128 cycles.
 Requested convergence on MAX density matrix=1.00D-06.
 Requested convergence on             energy=1.00D-06.
 No special actions if energy rises.
 SCF Done:  E(RHF) =  -75.5975503730     A.U. after   11 cycles
            NFock= 11  Conv=0.14D-08     -V/T= 2.0109
 Calling FoFJK, ICntrl=      2127 FMM=F ISym2X=1 I1Cent= 0 IOpClX= 0 NMat=1 NMatS=1 NMatT=0.
 ***** Axes restored to original set *****
 -------------------------------------------------------------------
 Center     Atomic                   Forces (Hartrees/Bohr)
 Number     Number              X              Y              Z
 -------------------------------------------------------------------
      1        8           0.000000000    0.000000000   -0.108581364
      2        1           0.000000000   -0.084671966    0.054290682
      3        1           0.000000000    0.084671966    0.054290682
 -------------------------------------------------------------------
 Cartesian Forces:  Max     0.108581364 RMS     0.059650419

 GradGradGradGradGradGradGradGradGradGradGradGradGradGradGradGradGradGrad
 Berny optimization.
 Using GEDIIS/GDIIS optimizer.
 FormGI is forming the generalized inverse of G from B-inverse, IUseBI=4.
 Internal  Forces:  Max     0.100424383 RMS     0.082813945
 Search for a local minimum.
 Step number   2 out of a maximum of   20
 All quantities printed in internal units (Hartrees-Bohrs-Radians)
 Mixed Optimization -- RFO/linear search
 Update second derivatives using D2CorX and points    1    2
 DE= -4.11D-02 DEPred=-3.73D-02 R= 1.10D+00
 TightC=F SS=  1.41D+00  RLast= 3.00D-01 DXNew= 5.0454D-01 9.0000D-01
 Trust test= 1.10D+00 RLast= 3.00D-01 DXMaxT set to 5.05D-01
 The second derivative matrix:
                          R1        R2        A1
           R1           0.00232
           R2          -0.04074   0.00232
           A1          -0.01649  -0.01649   0.15329
 ITU=  1  0
 Use linear search instead of GDIIS.
     Eigenvalues ---   -0.04121   0.04307   0.15609
 RFO step:  Lambda=-1.65497175D-01 EMin=-4.12128237D-02
 Skip linear search -- no minimum in search direction.
 Maximum step size (   0.505) exceeded in Quadratic search.
    -- Step size scaled by   0.505
 Iteration  1 RMS(Cart)=  0.18797818 RMS(Int)=  0.12722120
 Iteration  2 RMS(Cart)=  0.10818421 RMS(Int)=  0.00010710
 Iteration  3 RMS(Cart)=  0.00018789 RMS(Int)=  0.00000001
 Iteration  4 RMS(Cart)=  0.00000001 RMS(Int)=  0.00000000
 ClnCor:  largest displacement from symmetrization is 2.22D-15 for atom     1.
 Variable       Old X    -DE/DX   Delta X   Delta X   Delta X     New X
                                 (Linear)    (Quad)   (Total)
    R1        3.56786  -0.10042   0.00000  -0.35381  -0.35381   3.21406
    R2        3.56786  -0.10042   0.00000  -0.35381  -0.35381   3.21406
    A1        1.88916  -0.02011   0.00000  -0.06482  -0.06482   1.82433
         Item               Value     Threshold  Converged?
 Maximum Force            0.100424     0.000450     NO 
 RMS     Force            0.082814     0.000300     NO 
 Maximum Displacement     0.349081     0.001800     NO 
 RMS     Displacement     0.290952     0.001200     NO 
 Predicted change in Energy=-7.760809D-02
 GradGradGradGradGradGradGradGradGradGradGradGradGradGradGradGradGradGrad

                          Input orientation:                          
 ---------------------------------------------------------------------
 Center     Atomic      Atomic             Coordinates (Angstroms)
 Number     Number       Type             X           Y           Z
 ---------------------------------------------------------------------
      1          8           0        0.000000   -0.849156    0.644846
      2          1           0        0.000000    0.495896   -0.396105
      3          1           0        0.000000   -2.194209   -0.396105
 ---------------------------------------------------------------------
                    Distance matrix (angstroms):
                    1          2          3
     1  O    0.000000
     2  H    1.700807   0.000000
     3  H    1.700807   2.690105   0.000000
 Stoichiometry    H2O
 Framework group  C2V[C2(O),SGV(H2)]
 Deg. of freedom     2
 Full point group                 C2V     NOp   4
 Largest Abelian subgroup         C2V     NOp   4
 Largest concise Abelian subgroup C2      NOp   2
                         Standard orientation:                         
 ---------------------------------------------------------------------
 Center     Atomic      Atomic             Coordinates (Angstroms)
 Number     Number       Type             X           Y           Z
 ---------------------------------------------------------------------
      1          8           0        0.000000    0.000000    0.208190
      2          1           0        0.000000    1.345052   -0.832760
      3          1           0        0.000000   -1.345052   -0.832760
 ---------------------------------------------------------------------
 Rotational constants (GHZ):    260.5477817    138.5873545     90.4671739
 Standard basis: 6-31G (6D, 7F)
 There are     7 symmetry adapted cartesian basis functions of A1  symmetry.
 There are     0 symmetry adapted cartesian basis functions of A2  symmetry.
 There are     2 symmetry adapted cartesian basis functions of B1  symmetry.
 There are     4 symmetry adapted cartesian basis functions of B2  symmetry.
 There are     7 symmetry adapted basis functions of A1  symmetry.
 There are     0 symmetry adapted basis functions of A2  symmetry.
 There are     2 symmetry adapted basis functions of B1  symmetry.
 There are     4 symmetry adapted basis functions of B2  symmetry.
    13 basis functions,    30 primitive gaussians,    13 cartesian basis functions
     5 alpha electrons        5 beta electrons
       nuclear repulsion energy         5.1748411796 Hartrees.
 NAtoms=    3 NActive=    3 NUniq=    2 SFac= 2.25D+00 NAtFMM=   60 NAOKFM=F Big=F
 Integral buffers will be    131072 words long.
 Raffenetti 1 integral format.
 Two-electron integral symmetry is turned on.
 One-electron integrals computed using PRISM.
 NBasis=    13 RedAO= T EigKep=  2.48D-01  NBF=     7     0     2     4
 NBsUse=    13 1.00D-06 EigRej= -1.00D+00 NBFU=     7     0     2     4
 Initial guess from the checkpoint file:  "H2O-3.chk"
 B after Tr=     0.000000    0.000000    0.000000
         Rot=    1.000000    0.000000    0.000000    0.000000 Ang=   0.00 deg.
 Initial guess orbital symmetries:
       Occupied  (A1) (A1) (B1) (B2) (A1)
       Virtual   (A1) (A1) (A1) (A1) (B1) (B2) (B2) (B2)
 ExpMin= 1.61D-01 ExpMax= 5.48D+03 ExpMxC= 8.25D+02 IAcc=1 IRadAn=         1 AccDes= 0.00D+00
 Harris functional with IExCor=  205 and IRadAn=       1 diagonalized for initial guess.
 HarFok:  IExCor=  205 AccDes= 0.00D+00 IRadAn=         1 IDoV= 1 UseB2=F ITyADJ=14
 ICtDFT=  3500011 ScaDFX=  1.000000  1.000000  1.000000  1.000000
 FoFCou: FMM=F IPFlag=           0 FMFlag=      100000 FMFlg1=           0
         NFxFlg=           0 DoJE=T BraDBF=F KetDBF=T FulRan=T
         wScrn=  0.000000 ICntrl=     500 IOpCl=  0 I1Cent=   200000004 NGrid=           0
         NMat0=    1 NMatS0=      1 NMatT0=    0 NMatD0=    1 NMtDS0=    0 NMtDT0=    0
 Petite list used in FoFCou.
 Keep R1 ints in memory in symmetry-blocked form, NReq=829503.
 Requested convergence on RMS density matrix=1.00D-08 within 128 cycles.
 Requested convergence on MAX density matrix=1.00D-06.
 Requested convergence on             energy=1.00D-06.
 No special actions if energy rises.
 SCF Done:  E(RHF) =  -75.6746723543     A.U. after   10 cycles
            NFock= 10  Conv=0.27D-08     -V/T= 2.0114
 Calling FoFJK, ICntrl=      2127 FMM=F ISym2X=1 I1Cent= 0 IOpClX= 0 NMat=1 NMatS=1 NMatT=0.
 ***** Axes restored to original set *****
 -------------------------------------------------------------------
 Center     Atomic                   Forces (Hartrees/Bohr)
 Number     Number              X              Y              Z
 -------------------------------------------------------------------
      1        8           0.000000000    0.000000000   -0.129643213
      2        1           0.000000000   -0.093575669    0.064821606
      3        1           0.000000000    0.093575669    0.064821606
 -------------------------------------------------------------------
 Cartesian Forces:  Max     0.129643213 RMS     0.068899166

 GradGradGradGradGradGradGradGradGradGradGradGradGradGradGradGradGradGrad
 Berny optimization.
 Using GEDIIS/GDIIS optimizer.
 FormGI is forming the generalized inverse of G from B-inverse, IUseBI=4.
 Internal  Forces:  Max     0.113675614 RMS     0.093483015
 Search for a local minimum.
 Step number   3 out of a maximum of   20
 All quantities printed in internal units (Hartrees-Bohrs-Radians)
 Mixed Optimization -- RFO/linear search
 Update second derivatives using D2CorX and points    2    3
 DE= -7.71D-02 DEPred=-7.76D-02 R= 9.94D-01
 TightC=F SS=  1.41D+00  RLast= 5.05D-01 DXNew= 8.4853D-01 1.5136D+00
 Trust test= 9.94D-01 RLast= 5.05D-01 DXMaxT set to 8.49D-01
 The second derivative matrix:
                          R1        R2        A1
           R1           0.00399
           R2          -0.03907   0.00399
           A1          -0.01294  -0.01294   0.15351
 ITU=  1  1  0
 Use linear search instead of GDIIS.
     Eigenvalues ---   -0.03684   0.04307   0.15527
 RFO step:  Lambda=-1.81356786D-01 EMin=-3.68416709D-02
 Skip linear search -- no minimum in search direction.
 Maximum step size (   0.849) exceeded in Quadratic search.
    -- Step size scaled by   0.848
 Iteration  1 RMS(Cart)=  0.20210107 RMS(Int)=  0.32668605
 Iteration  2 RMS(Cart)=  0.13568474 RMS(Int)=  0.16338053
 Iteration  3 RMS(Cart)=  0.13883032 RMS(Int)=  0.00008320
 Iteration  4 RMS(Cart)=  0.00006023 RMS(Int)=  0.00000000
 Iteration  5 RMS(Cart)=  0.00000000 RMS(Int)=  0.00000000
 ClnCor:  largest displacement from symmetrization is 3.14D-15 for atom     3.
 Variable       Old X    -DE/DX   Delta X   Delta X   Delta X     New X
                                 (Linear)    (Quad)   (Total)
    R1        3.21406  -0.11368   0.00000  -0.59655  -0.59655   2.61751
    R2        3.21406  -0.11368   0.00000  -0.59655  -0.59655   2.61751
    A1        1.82433  -0.01931   0.00000  -0.09082  -0.09082   1.73352
         Item               Value     Threshold  Converged?
 Maximum Force            0.113676     0.000450     NO 
 RMS     Force            0.093483     0.000300     NO 
 Maximum Displacement     0.546626     0.001800     NO 
 RMS     Displacement     0.464476     0.001200     NO 
 Predicted change in Energy=-1.506350D-01
 GradGradGradGradGradGradGradGradGradGradGradGradGradGradGradGradGradGrad

                          Input orientation:                          
 ---------------------------------------------------------------------
 Center     Atomic      Atomic             Coordinates (Angstroms)
 Number     Number       Type             X           Y           Z
 ---------------------------------------------------------------------
      1          8           0        0.000000   -0.849156    0.548606
      2          1           0        0.000000    0.206634   -0.347985
      3          1           0        0.000000   -1.904947   -0.347985
 ---------------------------------------------------------------------
                    Distance matrix (angstroms):
                    1          2          3
     1  O    0.000000
     2  H    1.385124   0.000000
     3  H    1.385124   2.111581   0.000000
 Stoichiometry    H2O
 Framework group  C2V[C2(O),SGV(H2)]
 Deg. of freedom     2
 Full point group                 C2V     NOp   4
 Largest Abelian subgroup         C2V     NOp   4
 Largest concise Abelian subgroup C2      NOp   2
                         Standard orientation:                         
 ---------------------------------------------------------------------
 Center     Atomic      Atomic             Coordinates (Angstroms)
 Number     Number       Type             X           Y           Z
 ---------------------------------------------------------------------
      1          8           0        0.000000    0.000000    0.179318
      2          1           0        0.000000    1.055790   -0.717273
      3          1           0        0.000000   -1.055790   -0.717273
 ---------------------------------------------------------------------
 Rotational constants (GHZ):    351.2030807    224.9296694    137.1142203
 Standard basis: 6-31G (6D, 7F)
 There are     7 symmetry adapted cartesian basis functions of A1  symmetry.
 There are     0 symmetry adapted cartesian basis functions of A2  symmetry.
 There are     2 symmetry adapted cartesian basis functions of B1  symmetry.
 There are     4 symmetry adapted cartesian basis functions of B2  symmetry.
 There are     7 symmetry adapted basis functions of A1  symmetry.
 There are     0 symmetry adapted basis functions of A2  symmetry.
 There are     2 symmetry adapted basis functions of B1  symmetry.
 There are     4 symmetry adapted basis functions of B2  symmetry.
    13 basis functions,    30 primitive gaussians,    13 cartesian basis functions
     5 alpha electrons        5 beta electrons
       nuclear repulsion energy         6.3632972002 Hartrees.
 NAtoms=    3 NActive=    3 NUniq=    2 SFac= 2.25D+00 NAtFMM=   60 NAOKFM=F Big=F
 Integral buffers will be    131072 words long.
 Raffenetti 1 integral format.
 Two-electron integral symmetry is turned on.
 One-electron integrals computed using PRISM.
 NBasis=    13 RedAO= T EigKep=  2.19D-01  NBF=     7     0     2     4
 NBsUse=    13 1.00D-06 EigRej= -1.00D+00 NBFU=     7     0     2     4
 Initial guess from the checkpoint file:  "H2O-3.chk"
 B after Tr=     0.000000    0.000000    0.000000
         Rot=    1.000000    0.000000    0.000000    0.000000 Ang=   0.00 deg.
 Initial guess orbital symmetries:
       Occupied  (A1) (A1) (B1) (B2) (A1)
       Virtual   (A1) (A1) (A1) (A1) (B1) (B2) (B2) (B2)
 ExpMin= 1.61D-01 ExpMax= 5.48D+03 ExpMxC= 8.25D+02 IAcc=1 IRadAn=         1 AccDes= 0.00D+00
 Harris functional with IExCor=  205 and IRadAn=       1 diagonalized for initial guess.
 HarFok:  IExCor=  205 AccDes= 0.00D+00 IRadAn=         1 IDoV= 1 UseB2=F ITyADJ=14
 ICtDFT=  3500011 ScaDFX=  1.000000  1.000000  1.000000  1.000000
 FoFCou: FMM=F IPFlag=           0 FMFlag=      100000 FMFlg1=           0
         NFxFlg=           0 DoJE=T BraDBF=F KetDBF=T FulRan=T
         wScrn=  0.000000 ICntrl=     500 IOpCl=  0 I1Cent=   200000004 NGrid=           0
         NMat0=    1 NMatS0=      1 NMatT0=    0 NMatD0=    1 NMtDS0=    0 NMtDT0=    0
 Petite list used in FoFCou.
 Keep R1 ints in memory in symmetry-blocked form, NReq=829601.
 Requested convergence on RMS density matrix=1.00D-08 within 128 cycles.
 Requested convergence on MAX density matrix=1.00D-06.
 Requested convergence on             energy=1.00D-06.
 No special actions if energy rises.
 SCF Done:  E(RHF) =  -75.8222890143     A.U. after   10 cycles
            NFock= 10  Conv=0.40D-08     -V/T= 2.0104
 Calling FoFJK, ICntrl=      2127 FMM=F ISym2X=1 I1Cent= 0 IOpClX= 0 NMat=1 NMatS=1 NMatT=0.
 ***** Axes restored to original set *****
 -------------------------------------------------------------------
 Center     Atomic                   Forces (Hartrees/Bohr)
 Number     Number              X              Y              Z
 -------------------------------------------------------------------
      1        8           0.000000000    0.000000000   -0.163505611
      2        1           0.000000000   -0.099489549    0.081752806
      3        1           0.000000000    0.099489549    0.081752806
 -------------------------------------------------------------------
 Cartesian Forces:  Max     0.163505611 RMS     0.081579864

 GradGradGradGradGradGradGradGradGradGradGradGradGradGradGradGradGradGrad
 Berny optimization.
 Using GEDIIS/GDIIS optimizer.
 FormGI is forming the generalized inverse of G from B-inverse, IUseBI=4.
 Internal  Forces:  Max     0.128753040 RMS     0.105173616
 Search for a local minimum.
 Step number   4 out of a maximum of   20
 All quantities printed in internal units (Hartrees-Bohrs-Radians)
 Mixed Optimization -- RFO/linear search
 Update second derivatives using D2CorX and points    3    4
 DE= -1.48D-01 DEPred=-1.51D-01 R= 9.80D-01
 TightC=F SS=  1.41D+00  RLast= 8.49D-01 DXNew= 1.4270D+00 2.5456D+00
 Trust test= 9.80D-01 RLast= 8.49D-01 DXMaxT set to 1.43D+00
 The second derivative matrix:
                          R1        R2        A1
           R1           0.00884
           R2          -0.03423   0.00884
           A1           0.00079   0.00079   0.14212
 ITU=  1  1  1  0
 Use linear search instead of GDIIS.
     Eigenvalues ---   -0.02540   0.04307   0.14213
 RFO step:  Lambda=-1.95248994D-01 EMin=-2.54026559D-02
 Skip linear search -- no minimum in search direction.
 Iteration  1 RMS(Cart)=  0.14436085 RMS(Int)=  0.41416460
 Iteration  2 RMS(Cart)=  0.13776451 RMS(Int)=  0.25086514
 Iteration  3 RMS(Cart)=  0.13825078 RMS(Int)=  0.08756582
 Iteration  4 RMS(Cart)=  0.07411067 RMS(Int)=  0.00000031
 Iteration  5 RMS(Cart)=  0.00000033 RMS(Int)=  0.00000000
 ClnCor:  largest displacement from symmetrization is 3.47D-15 for atom     3.
 Variable       Old X    -DE/DX   Delta X   Delta X   Delta X     New X
                                 (Linear)    (Quad)   (Total)
    R1        2.61751  -0.12875   0.00000  -0.70718  -0.70718   1.91032
    R2        2.61751  -0.12875   0.00000  -0.70718  -0.70718   1.91032
    A1        1.73352  -0.00546   0.00000  -0.01309  -0.01309   1.72043
         Item               Value     Threshold  Converged?
 Maximum Force            0.128753     0.000450     NO 
 RMS     Force            0.105174     0.000300     NO 
 Maximum Displacement     0.547164     0.001800     NO 
 RMS     Displacement     0.494211     0.001200     NO 
 Predicted change in Energy=-1.948493D-01
 GradGradGradGradGradGradGradGradGradGradGradGradGradGradGradGradGradGrad

                          Input orientation:                          
 ---------------------------------------------------------------------
 Center     Atomic      Atomic             Coordinates (Angstroms)
 Number     Number       Type             X           Y           Z
 ---------------------------------------------------------------------
      1          8           0        0.000000   -0.849156    0.390467
      2          1           0        0.000000   -0.082913   -0.268916
      3          1           0        0.000000   -1.615400   -0.268916
 ---------------------------------------------------------------------
                    Distance matrix (angstroms):
                    1          2          3
     1  O    0.000000
     2  H    1.010898   0.000000
     3  H    1.010898   1.532487   0.000000
 Stoichiometry    H2O
 Framework group  C2V[C2(O),SGV(H2)]
 Deg. of freedom     2
 Full point group                 C2V     NOp   4
 Largest Abelian subgroup         C2V     NOp   4
 Largest concise Abelian subgroup C2      NOp   2
                         Standard orientation:                         
 ---------------------------------------------------------------------
 Center     Atomic      Atomic             Coordinates (Angstroms)
 Number     Number       Type             X           Y           Z
 ---------------------------------------------------------------------
      1          8           0        0.000000    0.000000    0.131877
      2          1           0        0.000000    0.766244   -0.527506
      3          1           0        0.000000   -0.766244   -0.527506
 ---------------------------------------------------------------------
 Rotational constants (GHZ):    649.3397828    427.0397185    257.6172045
 Standard basis: 6-31G (6D, 7F)
 There are     7 symmetry adapted cartesian basis functions of A1  symmetry.
 There are     0 symmetry adapted cartesian basis functions of A2  symmetry.
 There are     2 symmetry adapted cartesian basis functions of B1  symmetry.
 There are     4 symmetry adapted cartesian basis functions of B2  symmetry.
 There are     7 symmetry adapted basis functions of A1  symmetry.
 There are     0 symmetry adapted basis functions of A2  symmetry.
 There are     2 symmetry adapted basis functions of B1  symmetry.
 There are     4 symmetry adapted basis functions of B2  symmetry.
    13 basis functions,    30 primitive gaussians,    13 cartesian basis functions
     5 alpha electrons        5 beta electrons
       nuclear repulsion energy         8.7208626431 Hartrees.
 NAtoms=    3 NActive=    3 NUniq=    2 SFac= 2.25D+00 NAtFMM=   60 NAOKFM=F Big=F
 Integral buffers will be    131072 words long.
 Raffenetti 1 integral format.
 Two-electron integral symmetry is turned on.
 One-electron integrals computed using PRISM.
 NBasis=    13 RedAO= T EigKep=  1.28D-01  NBF=     7     0     2     4
 NBsUse=    13 1.00D-06 EigRej= -1.00D+00 NBFU=     7     0     2     4
 Initial guess from the checkpoint file:  "H2O-3.chk"
 B after Tr=     0.000000    0.000000    0.000000
         Rot=    1.000000    0.000000    0.000000    0.000000 Ang=   0.00 deg.
 Initial guess orbital symmetries:
       Occupied  (A1) (A1) (B2) (A1) (B1)
       Virtual   (A1) (A1) (A1) (A1) (B1) (B2) (B2) (B2)
 ExpMin= 1.61D-01 ExpMax= 5.48D+03 ExpMxC= 8.25D+02 IAcc=1 IRadAn=         1 AccDes= 0.00D+00
 Harris functional with IExCor=  205 and IRadAn=       1 diagonalized for initial guess.
 HarFok:  IExCor=  205 AccDes= 0.00D+00 IRadAn=         1 IDoV= 1 UseB2=F ITyADJ=14
 ICtDFT=  3500011 ScaDFX=  1.000000  1.000000  1.000000  1.000000
 FoFCou: FMM=F IPFlag=           0 FMFlag=      100000 FMFlg1=           0
         NFxFlg=           0 DoJE=T BraDBF=F KetDBF=T FulRan=T
         wScrn=  0.000000 ICntrl=     500 IOpCl=  0 I1Cent=   200000004 NGrid=           0
         NMat0=    1 NMatS0=      1 NMatT0=    0 NMatD0=    1 NMtDS0=    0 NMtDT0=    0
 Petite list used in FoFCou.
 Keep R1 ints in memory in symmetry-blocked form, NReq=829659.
 Requested convergence on RMS density matrix=1.00D-08 within 128 cycles.
 Requested convergence on MAX density matrix=1.00D-06.
 Requested convergence on             energy=1.00D-06.
 No special actions if energy rises.
 SCF Done:  E(RHF) =  -75.9757697372     A.U. after   10 cycles
            NFock= 10  Conv=0.38D-08     -V/T= 2.0022
 Calling FoFJK, ICntrl=      2127 FMM=F ISym2X=1 I1Cent= 0 IOpClX= 0 NMat=1 NMatS=1 NMatT=0.
 ***** Axes restored to original set *****
 -------------------------------------------------------------------
 Center     Atomic                   Forces (Hartrees/Bohr)
 Number     Number              X              Y              Z
 -------------------------------------------------------------------
      1        8           0.000000000    0.000000000   -0.087558752
      2        1           0.000000000   -0.023245117    0.043779376
      3        1           0.000000000    0.023245117    0.043779376
 -------------------------------------------------------------------
 Cartesian Forces:  Max     0.087558752 RMS     0.037387570

 GradGradGradGradGradGradGradGradGradGradGradGradGradGradGradGradGradGrad
 Berny optimization.
 Using GEDIIS/GDIIS optimizer.
 FormGI is forming the generalized inverse of G from B-inverse, IUseBI=4.
 Internal  Forces:  Max     0.046175566 RMS     0.042620875
 Search for a local minimum.
 Step number   5 out of a maximum of   20
 All quantities printed in internal units (Hartrees-Bohrs-Radians)
 Mixed Optimization -- RFO/linear search
 Update second derivatives using D2CorX and points    4    5
 DE= -1.53D-01 DEPred=-1.95D-01 R= 7.88D-01
 TightC=F SS=  1.41D+00  RLast= 1.00D+00 DXNew= 2.4000D+00 3.0006D+00
 Trust test= 7.88D-01 RLast= 1.00D+00 DXMaxT set to 2.40D+00
 The second derivative matrix:
                          R1        R2        A1
           R1           0.07967
           R2           0.03660   0.07967
           A1           0.02676   0.02676   0.15603
 ITU=  1  1  1  1
 Use linear search instead of GDIIS.
     Eigenvalues ---    0.04307   0.09341   0.17890
 RFO step:  Lambda=-1.09866662D-02 EMin= 4.30660311D-02
 Quartic linear search produced a step of  0.15458.
 Iteration  1 RMS(Cart)=  0.11908198 RMS(Int)=  0.02866096
 Iteration  2 RMS(Cart)=  0.02209317 RMS(Int)=  0.00043006
 Iteration  3 RMS(Cart)=  0.00043560 RMS(Int)=  0.00000004
 Iteration  4 RMS(Cart)=  0.00000003 RMS(Int)=  0.00000000
 ClnCor:  largest displacement from symmetrization is 1.08D-15 for atom     3.
 Variable       Old X    -DE/DX   Delta X   Delta X   Delta X     New X
                                 (Linear)    (Quad)   (Total)
    R1        1.91032  -0.04618  -0.10932  -0.05883  -0.16814   1.74218
    R2        1.91032  -0.04618  -0.10932  -0.05883  -0.16814   1.74218
    A1        1.72043   0.03443  -0.00202   0.26555   0.26353   1.98396
         Item               Value     Threshold  Converged?
 Maximum Force            0.046176     0.000450     NO 
 RMS     Force            0.042621     0.000300     NO 
 Maximum Displacement     0.195349     0.001800     NO 
 RMS     Displacement     0.138394     0.001200     NO 
 Predicted change in Energy=-1.826673D-02
 GradGradGradGradGradGradGradGradGradGradGradGradGradGradGradGradGradGrad

                          Input orientation:                          
 ---------------------------------------------------------------------
 Center     Atomic      Atomic             Coordinates (Angstroms)
 Number     Number       Type             X           Y           Z
 ---------------------------------------------------------------------
      1          8           0        0.000000   -0.849156    0.287093
      2          1           0        0.000000   -0.077408   -0.217228
      3          1           0        0.000000   -1.620905   -0.217228
 ---------------------------------------------------------------------
                    Distance matrix (angstroms):
                    1          2          3
     1  O    0.000000
     2  H    0.921920   0.000000
     3  H    0.921920   1.543497   0.000000
 Stoichiometry    H2O
 Framework group  C2V[C2(O),SGV(H2)]
 Deg. of freedom     2
 Full point group                 C2V     NOp   4
 Largest Abelian subgroup         C2V     NOp   4
 Largest concise Abelian subgroup C2      NOp   2
                         Standard orientation:                         
 ---------------------------------------------------------------------
 Center     Atomic      Atomic             Coordinates (Angstroms)
 Number     Number       Type             X           Y           Z
 ---------------------------------------------------------------------
      1          8           0        0.000000    0.000000    0.100864
      2          1           0        0.000000    0.771749   -0.403457
      3          1           0        0.000000   -0.771749   -0.403457
 ---------------------------------------------------------------------
 Rotational constants (GHZ):   1110.0238566    420.9692600    305.2175196
 Standard basis: 6-31G (6D, 7F)
 There are     7 symmetry adapted cartesian basis functions of A1  symmetry.
 There are     0 symmetry adapted cartesian basis functions of A2  symmetry.
 There are     2 symmetry adapted cartesian basis functions of B1  symmetry.
 There are     4 symmetry adapted cartesian basis functions of B2  symmetry.
 There are     7 symmetry adapted basis functions of A1  symmetry.
 There are     0 symmetry adapted basis functions of A2  symmetry.
 There are     2 symmetry adapted basis functions of B1  symmetry.
 There are     4 symmetry adapted basis functions of B2  symmetry.
    13 basis functions,    30 primitive gaussians,    13 cartesian basis functions
     5 alpha electrons        5 beta electrons
       nuclear repulsion energy         9.5267603069 Hartrees.
 NAtoms=    3 NActive=    3 NUniq=    2 SFac= 2.25D+00 NAtFMM=   60 NAOKFM=F Big=F
 Integral buffers will be    131072 words long.
 Raffenetti 1 integral format.
 Two-electron integral symmetry is turned on.
 One-electron integrals computed using PRISM.
 NBasis=    13 RedAO= T EigKep=  1.11D-01  NBF=     7     0     2     4
 NBsUse=    13 1.00D-06 EigRej= -1.00D+00 NBFU=     7     0     2     4
 Initial guess from the checkpoint file:  "H2O-3.chk"
 B after Tr=     0.000000    0.000000    0.000000
         Rot=    1.000000    0.000000    0.000000    0.000000 Ang=   0.00 deg.
 Initial guess orbital symmetries:
       Occupied  (A1) (A1) (B2) (A1) (B1)
       Virtual   (A1) (A1) (A1) (A1) (B1) (B2) (B2) (B2)
 ExpMin= 1.61D-01 ExpMax= 5.48D+03 ExpMxC= 8.25D+02 IAcc=1 IRadAn=         1 AccDes= 0.00D+00
 Harris functional with IExCor=  205 and IRadAn=       1 diagonalized for initial guess.
 HarFok:  IExCor=  205 AccDes= 0.00D+00 IRadAn=         1 IDoV= 1 UseB2=F ITyADJ=14
 ICtDFT=  3500011 ScaDFX=  1.000000  1.000000  1.000000  1.000000
 FoFCou: FMM=F IPFlag=           0 FMFlag=      100000 FMFlg1=           0
         NFxFlg=           0 DoJE=T BraDBF=F KetDBF=T FulRan=T
         wScrn=  0.000000 ICntrl=     500 IOpCl=  0 I1Cent=   200000004 NGrid=           0
         NMat0=    1 NMatS0=      1 NMatT0=    0 NMatD0=    1 NMtDS0=    0 NMtDT0=    0
 Petite list used in FoFCou.
 Keep R1 ints in memory in symmetry-blocked form, NReq=829687.
 Requested convergence on RMS density matrix=1.00D-08 within 128 cycles.
 Requested convergence on MAX density matrix=1.00D-06.
 Requested convergence on             energy=1.00D-06.
 No special actions if energy rises.
 SCF Done:  E(RHF) =  -75.9836783967     A.U. after   10 cycles
            NFock= 10  Conv=0.20D-08     -V/T= 1.9981
 Calling FoFJK, ICntrl=      2127 FMM=F ISym2X=1 I1Cent= 0 IOpClX= 0 NMat=1 NMatS=1 NMatT=0.
 ***** Axes restored to original set *****
 -------------------------------------------------------------------
 Center     Atomic                   Forces (Hartrees/Bohr)
 Number     Number              X              Y              Z
 -------------------------------------------------------------------
      1        8           0.000000000    0.000000000    0.037611413
      2        1           0.000000000    0.026340482   -0.018805706
      3        1           0.000000000   -0.026340482   -0.018805706
 -------------------------------------------------------------------
 Cartesian Forces:  Max     0.037611413 RMS     0.019747207

 GradGradGradGradGradGradGradGradGradGradGradGradGradGradGradGradGradGrad
 Berny optimization.
 Using GEDIIS/GDIIS optimizer.
 FormGI is forming the generalized inverse of G from B-inverse, IUseBI=4.
 Internal  Forces:  Max     0.032337252 RMS     0.026437293
 Search for a local minimum.
 Step number   6 out of a maximum of   20
 All quantities printed in internal units (Hartrees-Bohrs-Radians)
 Mixed Optimization -- RFO/linear search
 Update second derivatives using D2CorX and points    5    6
 DE= -7.91D-03 DEPred=-1.83D-02 R= 4.33D-01
 Trust test= 4.33D-01 RLast= 3.55D-01 DXMaxT set to 2.40D+00
 The second derivative matrix:
                          R1        R2        A1
           R1           0.23815
           R2           0.19508   0.23815
           A1          -0.02150  -0.02150   0.11201
 ITU=  0  1  1  1
 Use linear search instead of GDIIS.
     Eigenvalues ---    0.04307   0.10916   0.43609
 RFO step:  Lambda=-1.63989698D-03 EMin= 4.30660311D-02
 Quartic linear search produced a step of -0.27295.
 Iteration  1 RMS(Cart)=  0.06287194 RMS(Int)=  0.00083860
 Iteration  2 RMS(Cart)=  0.00068317 RMS(Int)=  0.00000038
 Iteration  3 RMS(Cart)=  0.00000038 RMS(Int)=  0.00000000
 ClnCor:  largest displacement from symmetrization is 6.90D-15 for atom     3.
 Variable       Old X    -DE/DX   Delta X   Delta X   Delta X     New X
                                 (Linear)    (Quad)   (Total)
    R1        1.74218   0.03234   0.04589   0.02538   0.07127   1.81345
    R2        1.74218   0.03234   0.04589   0.02538   0.07127   1.81345
    A1        1.98396  -0.00232  -0.07193   0.10755   0.03562   2.01958
         Item               Value     Threshold  Converged?
 Maximum Force            0.032337     0.000450     NO 
 RMS     Force            0.026437     0.000300     NO 
 Maximum Displacement     0.077087     0.001800     NO 
 RMS     Displacement     0.063187     0.001200     NO 
 Predicted change in Energy=-2.364184D-03
 GradGradGradGradGradGradGradGradGradGradGradGradGradGradGradGradGradGrad

                          Input orientation:                          
 ---------------------------------------------------------------------
 Center     Atomic      Atomic             Coordinates (Angstroms)
 Number     Number       Type             X           Y           Z
 ---------------------------------------------------------------------
      1          8           0        0.000000   -0.849156    0.291255
      2          1           0        0.000000   -0.036615   -0.219309
      3          1           0        0.000000   -1.661698   -0.219309
 ---------------------------------------------------------------------
                    Distance matrix (angstroms):
                    1          2          3
     1  O    0.000000
     2  H    0.959635   0.000000
     3  H    0.959635   1.625083   0.000000
 Stoichiometry    H2O
 Framework group  C2V[C2(O),SGV(H2)]
 Deg. of freedom     2
 Full point group                 C2V     NOp   4
 Largest Abelian subgroup         C2V     NOp   4
 Largest concise Abelian subgroup C2      NOp   2
                         Standard orientation:                         
 ---------------------------------------------------------------------
 Center     Atomic      Atomic             Coordinates (Angstroms)
 Number     Number       Type             X           Y           Z
 ---------------------------------------------------------------------
      1          8           0        0.000000    0.000000    0.102113
      2          1           0        0.000000    0.812541   -0.408452
      3          1           0        0.000000   -0.812541   -0.408452
 ---------------------------------------------------------------------
 Rotational constants (GHZ):   1083.0443568    379.7616390    281.1710516
 Standard basis: 6-31G (6D, 7F)
 There are     7 symmetry adapted cartesian basis functions of A1  symmetry.
 There are     0 symmetry adapted cartesian basis functions of A2  symmetry.
 There are     2 symmetry adapted cartesian basis functions of B1  symmetry.
 There are     4 symmetry adapted cartesian basis functions of B2  symmetry.
 There are     7 symmetry adapted basis functions of A1  symmetry.
 There are     0 symmetry adapted basis functions of A2  symmetry.
 There are     2 symmetry adapted basis functions of B1  symmetry.
 There are     4 symmetry adapted basis functions of B2  symmetry.
    13 basis functions,    30 primitive gaussians,    13 cartesian basis functions
     5 alpha electrons        5 beta electrons
       nuclear repulsion energy         9.1486044662 Hartrees.
 NAtoms=    3 NActive=    3 NUniq=    2 SFac= 2.25D+00 NAtFMM=   60 NAOKFM=F Big=F
 Integral buffers will be    131072 words long.
 Raffenetti 1 integral format.
 Two-electron integral symmetry is turned on.
 One-electron integrals computed using PRISM.
 NBasis=    13 RedAO= T EigKep=  1.21D-01  NBF=     7     0     2     4
 NBsUse=    13 1.00D-06 EigRej= -1.00D+00 NBFU=     7     0     2     4
 Initial guess from the checkpoint file:  "H2O-3.chk"
 B after Tr=     0.000000    0.000000    0.000000
         Rot=    1.000000    0.000000    0.000000    0.000000 Ang=   0.00 deg.
 Initial guess orbital symmetries:
       Occupied  (A1) (A1) (B2) (A1) (B1)
       Virtual   (A1) (A1) (A1) (A1) (B1) (B2) (B2) (B2)
 ExpMin= 1.61D-01 ExpMax= 5.48D+03 ExpMxC= 8.25D+02 IAcc=1 IRadAn=         1 AccDes= 0.00D+00
 Harris functional with IExCor=  205 and IRadAn=       1 diagonalized for initial guess.
 HarFok:  IExCor=  205 AccDes= 0.00D+00 IRadAn=         1 IDoV= 1 UseB2=F ITyADJ=14
 ICtDFT=  3500011 ScaDFX=  1.000000  1.000000  1.000000  1.000000
 FoFCou: FMM=F IPFlag=           0 FMFlag=      100000 FMFlg1=           0
         NFxFlg=           0 DoJE=T BraDBF=F KetDBF=T FulRan=T
         wScrn=  0.000000 ICntrl=     500 IOpCl=  0 I1Cent=   200000004 NGrid=           0
         NMat0=    1 NMatS0=      1 NMatT0=    0 NMatD0=    1 NMtDS0=    0 NMtDT0=    0
 Petite list used in FoFCou.
 Keep R1 ints in memory in symmetry-blocked form, NReq=829687.
 Requested convergence on RMS density matrix=1.00D-08 within 128 cycles.
 Requested convergence on MAX density matrix=1.00D-06.
 Requested convergence on             energy=1.00D-06.
 No special actions if energy rises.
 SCF Done:  E(RHF) =  -75.9846014370     A.U. after    9 cycles
            NFock=  9  Conv=0.70D-08     -V/T= 2.0002
 Calling FoFJK, ICntrl=      2127 FMM=F ISym2X=1 I1Cent= 0 IOpClX= 0 NMat=1 NMatS=1 NMatT=0.
 ***** Axes restored to original set *****
 -------------------------------------------------------------------
 Center     Atomic                   Forces (Hartrees/Bohr)
 Number     Number              X              Y              Z
 -------------------------------------------------------------------
      1        8           0.000000000    0.000000000   -0.001562365
      2        1           0.000000000   -0.015298858    0.000781182
      3        1           0.000000000    0.015298858    0.000781182
 -------------------------------------------------------------------
 Cartesian Forces:  Max     0.015298858 RMS     0.007240101

 GradGradGradGradGradGradGradGradGradGradGradGradGradGradGradGradGradGrad
 Berny optimization.
 Using GEDIIS/GDIIS optimizer.
 FormGI is forming the generalized inverse of G from B-inverse, IUseBI=4.
 Internal  Forces:  Max     0.013561261 RMS     0.013433695
 Search for a local minimum.
 Step number   7 out of a maximum of   20
 All quantities printed in internal units (Hartrees-Bohrs-Radians)
 Mixed Optimization -- RFO/linear search
 Update second derivatives using D2CorX and points    5    6    7
 DE= -9.23D-04 DEPred=-2.36D-03 R= 3.90D-01
 Trust test= 3.90D-01 RLast= 1.07D-01 DXMaxT set to 2.40D+00
 The second derivative matrix:
                          R1        R2        A1
           R1           0.33293
           R2           0.28987   0.33293
           A1           0.03703   0.03703   0.16733
 ITU=  0  0  1  1
 Use linear search instead of GDIIS.
     Eigenvalues ---    0.04307   0.16139   0.62874
 RFO step:  Lambda=-6.65951364D-04 EMin= 4.30660311D-02
 Quartic linear search produced a step of -0.37494.
 Iteration  1 RMS(Cart)=  0.04870925 RMS(Int)=  0.00116718
 Iteration  2 RMS(Cart)=  0.00087738 RMS(Int)=  0.00000028
 Iteration  3 RMS(Cart)=  0.00000030 RMS(Int)=  0.00000000
 ClnCor:  largest displacement from symmetrization is 5.24D-16 for atom     3.
 Variable       Old X    -DE/DX   Delta X   Delta X   Delta X     New X
                                 (Linear)    (Quad)   (Total)
    R1        1.81345  -0.01337  -0.02672   0.00773  -0.01899   1.79446
    R2        1.81345  -0.01337  -0.02672   0.00773  -0.01899   1.79446
    A1        2.01958  -0.01356  -0.01335  -0.06284  -0.07619   1.94338
         Item               Value     Threshold  Converged?
 Maximum Force            0.013561     0.000450     NO 
 RMS     Force            0.013434     0.000300     NO 
 Maximum Displacement     0.053544     0.001800     NO 
 RMS     Displacement     0.049028     0.001200     NO 
 Predicted change in Energy=-7.235894D-04
 GradGradGradGradGradGradGradGradGradGradGradGradGradGradGradGradGradGrad

                          Input orientation:                          
 ---------------------------------------------------------------------
 Center     Atomic      Atomic             Coordinates (Angstroms)
 Number     Number       Type             X           Y           Z
 ---------------------------------------------------------------------
      1          8           0        0.000000   -0.849156    0.307862
      2          1           0        0.000000   -0.064949   -0.227613
      3          1           0        0.000000   -1.633364   -0.227613
 ---------------------------------------------------------------------
                    Distance matrix (angstroms):
                    1          2          3
     1  O    0.000000
     2  H    0.949587   0.000000
     3  H    0.949587   1.568415   0.000000
 Stoichiometry    H2O
 Framework group  C2V[C2(O),SGV(H2)]
 Deg. of freedom     2
 Full point group                 C2V     NOp   4
 Largest Abelian subgroup         C2V     NOp   4
 Largest concise Abelian subgroup C2      NOp   2
                         Standard orientation:                         
 ---------------------------------------------------------------------
 Center     Atomic      Atomic             Coordinates (Angstroms)
 Number     Number       Type             X           Y           Z
 ---------------------------------------------------------------------
      1          8           0        0.000000    0.000000    0.107095
      2          1           0        0.000000    0.784207   -0.428380
      3          1           0        0.000000   -0.784207   -0.428380
 ---------------------------------------------------------------------
 Rotational constants (GHZ):    984.6205183    407.6995709    288.3168647
 Standard basis: 6-31G (6D, 7F)
 There are     7 symmetry adapted cartesian basis functions of A1  symmetry.
 There are     0 symmetry adapted cartesian basis functions of A2  symmetry.
 There are     2 symmetry adapted cartesian basis functions of B1  symmetry.
 There are     4 symmetry adapted cartesian basis functions of B2  symmetry.
 There are     7 symmetry adapted basis functions of A1  symmetry.
 There are     0 symmetry adapted basis functions of A2  symmetry.
 There are     2 symmetry adapted basis functions of B1  symmetry.
 There are     4 symmetry adapted basis functions of B2  symmetry.
    13 basis functions,    30 primitive gaussians,    13 cartesian basis functions
     5 alpha electrons        5 beta electrons
       nuclear repulsion energy         9.2537343460 Hartrees.
 NAtoms=    3 NActive=    3 NUniq=    2 SFac= 2.25D+00 NAtFMM=   60 NAOKFM=F Big=F
 Integral buffers will be    131072 words long.
 Raffenetti 1 integral format.
 Two-electron integral symmetry is turned on.
 One-electron integrals computed using PRISM.
 NBasis=    13 RedAO= T EigKep=  1.17D-01  NBF=     7     0     2     4
 NBsUse=    13 1.00D-06 EigRej= -1.00D+00 NBFU=     7     0     2     4
 Initial guess from the checkpoint file:  "H2O-3.chk"
 B after Tr=     0.000000    0.000000    0.000000
         Rot=    1.000000    0.000000    0.000000    0.000000 Ang=   0.00 deg.
 Initial guess orbital symmetries:
       Occupied  (A1) (A1) (B2) (A1) (B1)
       Virtual   (A1) (A1) (A1) (A1) (B1) (B2) (B2) (B2)
 ExpMin= 1.61D-01 ExpMax= 5.48D+03 ExpMxC= 8.25D+02 IAcc=1 IRadAn=         1 AccDes= 0.00D+00
 Harris functional with IExCor=  205 and IRadAn=       1 diagonalized for initial guess.
 HarFok:  IExCor=  205 AccDes= 0.00D+00 IRadAn=         1 IDoV= 1 UseB2=F ITyADJ=14
 ICtDFT=  3500011 ScaDFX=  1.000000  1.000000  1.000000  1.000000
 FoFCou: FMM=F IPFlag=           0 FMFlag=      100000 FMFlg1=           0
         NFxFlg=           0 DoJE=T BraDBF=F KetDBF=T FulRan=T
         wScrn=  0.000000 ICntrl=     500 IOpCl=  0 I1Cent=   200000004 NGrid=           0
         NMat0=    1 NMatS0=      1 NMatT0=    0 NMatD0=    1 NMtDS0=    0 NMtDT0=    0
 Petite list used in FoFCou.
 Keep R1 ints in memory in symmetry-blocked form, NReq=829687.
 Requested convergence on RMS density matrix=1.00D-08 within 128 cycles.
 Requested convergence on MAX density matrix=1.00D-06.
 Requested convergence on             energy=1.00D-06.
 No special actions if energy rises.
 SCF Done:  E(RHF) =  -75.9853580945     A.U. after    8 cycles
            NFock=  8  Conv=0.62D-08     -V/T= 1.9996
 Calling FoFJK, ICntrl=      2127 FMM=F ISym2X=1 I1Cent= 0 IOpClX= 0 NMat=1 NMatS=1 NMatT=0.
 ***** Axes restored to original set *****
 -------------------------------------------------------------------
 Center     Atomic                   Forces (Hartrees/Bohr)
 Number     Number              X              Y              Z
 -------------------------------------------------------------------
      1        8           0.000000000    0.000000000   -0.000359617
      2        1           0.000000000    0.000343973    0.000179808
      3        1           0.000000000   -0.000343973    0.000179808
 -------------------------------------------------------------------
 Cartesian Forces:  Max     0.000359617 RMS     0.000218739

 GradGradGradGradGradGradGradGradGradGradGradGradGradGradGradGradGradGrad
 Berny optimization.
 Using GEDIIS/GDIIS optimizer.
 FormGI is forming the generalized inverse of G from B-inverse, IUseBI=4.
 Internal  Forces:  Max     0.000614531 RMS     0.000384875
 Search for a local minimum.
 Step number   8 out of a maximum of   20
 All quantities printed in internal units (Hartrees-Bohrs-Radians)
 Mixed Optimization -- En-DIIS/RFO-DIIS
 Update second derivatives using D2CorX and points    5    6    7    8
 DE= -7.57D-04 DEPred=-7.24D-04 R= 1.05D+00
 TightC=F SS=  1.41D+00  RLast= 8.08D-02 DXNew= 4.0363D+00 2.4236D-01
 Trust test= 1.05D+00 RLast= 8.08D-02 DXMaxT set to 2.40D+00
 The second derivative matrix:
                          R1        R2        A1
           R1           0.32514
           R2           0.28207   0.32514
           A1           0.02654   0.02654   0.17282
 ITU=  1  0  0  1
 Use linear search instead of GDIIS.
     Eigenvalues ---    0.04307   0.16961   0.61042
 RFO step:  Lambda=-3.60027095D-07 EMin= 4.30660311D-02
 Quartic linear search produced a step of -0.03217.
 Iteration  1 RMS(Cart)=  0.00186154 RMS(Int)=  0.00000206
 Iteration  2 RMS(Cart)=  0.00000176 RMS(Int)=  0.00000000
 Iteration  3 RMS(Cart)=  0.00000000 RMS(Int)=  0.00000000
 ClnCor:  largest displacement from symmetrization is 3.95D-15 for atom     3.
 Variable       Old X    -DE/DX   Delta X   Delta X   Delta X     New X
                                 (Linear)    (Quad)   (Total)
    R1        1.79446   0.00018   0.00061  -0.00047   0.00014   1.79460
    R2        1.79446   0.00018   0.00061  -0.00047   0.00014   1.79460
    A1        1.94338   0.00061   0.00245   0.00089   0.00335   1.94673
         Item               Value     Threshold  Converged?
 Maximum Force            0.000615     0.000450     NO 
 RMS     Force            0.000385     0.000300     NO 
 Maximum Displacement     0.001809     0.001800     NO 
 RMS     Displacement     0.001861     0.001200     NO 
 Predicted change in Energy=-1.103216D-06
 GradGradGradGradGradGradGradGradGradGradGradGradGradGradGradGradGradGrad

                          Input orientation:                          
 ---------------------------------------------------------------------
 Center     Atomic      Atomic             Coordinates (Angstroms)
 Number     Number       Type             X           Y           Z
 ---------------------------------------------------------------------
      1          8           0        0.000000   -0.849156    0.307015
      2          1           0        0.000000   -0.063992   -0.227190
      3          1           0        0.000000   -1.634321   -0.227190
 ---------------------------------------------------------------------
                    Distance matrix (angstroms):
                    1          2          3
     1  O    0.000000
     2  H    0.949662   0.000000
     3  H    0.949662   1.570329   0.000000
 Stoichiometry    H2O
 Framework group  C2V[C2(O),SGV(H2)]
 Deg. of freedom     2
 Full point group                 C2V     NOp   4
 Largest Abelian subgroup         C2V     NOp   4
 Largest concise Abelian subgroup C2      NOp   2
                         Standard orientation:                         
 ---------------------------------------------------------------------
 Center     Atomic      Atomic             Coordinates (Angstroms)
 Number     Number       Type             X           Y           Z
 ---------------------------------------------------------------------
      1          8           0        0.000000    0.000000    0.106841
      2          1           0        0.000000    0.785165   -0.427364
      3          1           0        0.000000   -0.785165   -0.427364
 ---------------------------------------------------------------------
 Rotational constants (GHZ):    989.3088300    406.7059966    288.2188828
 Standard basis: 6-31G (6D, 7F)
 There are     7 symmetry adapted cartesian basis functions of A1  symmetry.
 There are     0 symmetry adapted cartesian basis functions of A2  symmetry.
 There are     2 symmetry adapted cartesian basis functions of B1  symmetry.
 There are     4 symmetry adapted cartesian basis functions of B2  symmetry.
 There are     7 symmetry adapted basis functions of A1  symmetry.
 There are     0 symmetry adapted basis functions of A2  symmetry.
 There are     2 symmetry adapted basis functions of B1  symmetry.
 There are     4 symmetry adapted basis functions of B2  symmetry.
    13 basis functions,    30 primitive gaussians,    13 cartesian basis functions
     5 alpha electrons        5 beta electrons
       nuclear repulsion energy         9.2526132714 Hartrees.
 NAtoms=    3 NActive=    3 NUniq=    2 SFac= 2.25D+00 NAtFMM=   60 NAOKFM=F Big=F
 Integral buffers will be    131072 words long.
 Raffenetti 1 integral format.
 Two-electron integral symmetry is turned on.
 One-electron integrals computed using PRISM.
 NBasis=    13 RedAO= T EigKep=  1.17D-01  NBF=     7     0     2     4
 NBsUse=    13 1.00D-06 EigRej= -1.00D+00 NBFU=     7     0     2     4
 Initial guess from the checkpoint file:  "H2O-3.chk"
 B after Tr=     0.000000    0.000000    0.000000
         Rot=    1.000000    0.000000    0.000000    0.000000 Ang=   0.00 deg.
 Initial guess orbital symmetries:
       Occupied  (A1) (A1) (B2) (A1) (B1)
       Virtual   (A1) (A1) (A1) (A1) (B1) (B2) (B2) (B2)
 Keep R1 ints in memory in symmetry-blocked form, NReq=829687.
 Requested convergence on RMS density matrix=1.00D-08 within 128 cycles.
 Requested convergence on MAX density matrix=1.00D-06.
 Requested convergence on             energy=1.00D-06.
 No special actions if energy rises.
 SCF Done:  E(RHF) =  -75.9853591667     A.U. after    7 cycles
            NFock=  7  Conv=0.31D-08     -V/T= 1.9996
 Calling FoFJK, ICntrl=      2127 FMM=F ISym2X=1 I1Cent= 0 IOpClX= 0 NMat=1 NMatS=1 NMatT=0.
 ***** Axes restored to original set *****
 -------------------------------------------------------------------
 Center     Atomic                   Forces (Hartrees/Bohr)
 Number     Number              X              Y              Z
 -------------------------------------------------------------------
      1        8           0.000000000    0.000000000   -0.000047377
      2        1           0.000000000   -0.000021173    0.000023689
      3        1           0.000000000    0.000021173    0.000023689
 -------------------------------------------------------------------
 Cartesian Forces:  Max     0.000047377 RMS     0.000021765

 GradGradGradGradGradGradGradGradGradGradGradGradGradGradGradGradGradGrad
 Berny optimization.
 Using GEDIIS/GDIIS optimizer.
 FormGI is forming the generalized inverse of G from B-inverse, IUseBI=4.
 Internal  Forces:  Max     0.000030831 RMS     0.000026399
 Search for a local minimum.
 Step number   9 out of a maximum of   20
 All quantities printed in internal units (Hartrees-Bohrs-Radians)
 Mixed Optimization -- En-DIIS/RFO-DIIS
 Swapping is turned off.
 Update second derivatives using D2CorX and points    6    7    8    9
 DE= -1.07D-06 DEPred=-1.10D-06 R= 9.72D-01
 TightC=F SS=  1.41D+00  RLast= 3.35D-03 DXNew= 4.0363D+00 1.0057D-02
 Trust test= 9.72D-01 RLast= 3.35D-03 DXMaxT set to 2.40D+00
 The second derivative matrix:
                          R1        R2        A1
           R1           0.32721
           R2           0.28414   0.32721
           A1           0.03771   0.03771   0.17631
 ITU=  1  1  0  0
     Eigenvalues ---    0.04307   0.16987   0.61779
 En-DIIS/RFO-DIIS IScMMF=        0 using points:     9    8
 RFO step:  Lambda= 0.00000000D+00.
 DidBck=F Rises=F RFO-DIIS coefs:    1.01800   -0.01800
 Iteration  1 RMS(Cart)=  0.00005101 RMS(Int)=  0.00000000
 Iteration  2 RMS(Cart)=  0.00000000 RMS(Int)=  0.00000000
 ClnCor:  largest displacement from symmetrization is 2.42D-14 for atom     3.
 Variable       Old X    -DE/DX   Delta X   Delta X   Delta X     New X
                                 (Linear)    (Quad)   (Total)
    R1        1.79460  -0.00003   0.00000  -0.00006  -0.00006   1.79454
    R2        1.79460  -0.00003   0.00000  -0.00006  -0.00006   1.79454
    A1        1.94673   0.00001   0.00006   0.00004   0.00010   1.94683
         Item               Value     Threshold  Converged?
 Maximum Force            0.000031     0.000450     YES
 RMS     Force            0.000026     0.000300     YES
 Maximum Displacement     0.000072     0.001800     YES
 RMS     Displacement     0.000051     0.001200     YES
 Predicted change in Energy=-2.454697D-09
 Optimization completed.
    -- Stationary point found.
                           ----------------------------
                           !   Optimized Parameters   !
                           ! (Angstroms and Degrees)  !
 --------------------------                            --------------------------
 ! Name  Definition              Value          Derivative Info.                !
 --------------------------------------------------------------------------------
 ! R1    R(1,2)                  0.9497         -DE/DX =    0.0                 !
 ! R2    R(1,3)                  0.9497         -DE/DX =    0.0                 !
 ! A1    A(2,1,3)              111.5394         -DE/DX =    0.0                 !
 --------------------------------------------------------------------------------
 GradGradGradGradGradGradGradGradGradGradGradGradGradGradGradGradGradGrad

                          Input orientation:                          
 ---------------------------------------------------------------------
 Center     Atomic      Atomic             Coordinates (Angstroms)
 Number     Number       Type             X           Y           Z
 ---------------------------------------------------------------------
      1          8           0        0.000000   -0.849156    0.307015
      2          1           0        0.000000   -0.063992   -0.227190
      3          1           0        0.000000   -1.634321   -0.227190
 ---------------------------------------------------------------------
                    Distance matrix (angstroms):
                    1          2          3
     1  O    0.000000
     2  H    0.949662   0.000000
     3  H    0.949662   1.570329   0.000000
 Stoichiometry    H2O
 Framework group  C2V[C2(O),SGV(H2)]
 Deg. of freedom     2
 Full point group                 C2V     NOp   4
 Largest Abelian subgroup         C2V     NOp   4
 Largest concise Abelian subgroup C2      NOp   2
                         Standard orientation:                         
 ---------------------------------------------------------------------
 Center     Atomic      Atomic             Coordinates (Angstroms)
 Number     Number       Type             X           Y           Z
 ---------------------------------------------------------------------
      1          8           0        0.000000    0.000000    0.106841
      2          1           0        0.000000    0.785165   -0.427364
      3          1           0        0.000000   -0.785165   -0.427364
 ---------------------------------------------------------------------
 Rotational constants (GHZ):    989.3088300    406.7059966    288.2188828

 **********************************************************************

            Population analysis using the SCF density.

 **********************************************************************

 Orbital symmetries:
       Occupied  (A1) (A1) (B2) (A1) (B1)
       Virtual   (A1) (B2) (B2) (A1) (B1) (A1) (B2) (A1)
 The electronic state is 1-A1.
 Alpha  occ. eigenvalues --  -20.55350  -1.35252  -0.72635  -0.54824  -0.49830
 Alpha virt. eigenvalues --    0.20698   0.30290   1.10540   1.16121   1.16716
 Alpha virt. eigenvalues --    1.20465   1.38893   1.67612
          Condensed to atoms (all electrons):
               1          2          3
     1  O    8.283355   0.263937   0.263937
     2  H    0.263937   0.358365  -0.027917
     3  H    0.263937  -0.027917   0.358365
 Mulliken charges:
               1
     1  O   -0.811229
     2  H    0.405615
     3  H    0.405615
 Sum of Mulliken charges =   0.00000
 Mulliken charges with hydrogens summed into heavy atoms:
               1
     1  O    0.000000
 Electronic spatial extent (au):  <R**2>=             18.9661
 Charge=              0.0000 electrons
 Dipole moment (field-independent basis, Debye):
    X=              0.0000    Y=              0.0000    Z=             -2.5007  Tot=              2.5007
 Quadrupole moment (field-independent basis, Debye-Ang):
   XX=             -7.1947   YY=             -3.8978   ZZ=             -6.3021
   XY=              0.0000   XZ=              0.0000   YZ=              0.0000
 Traceless Quadrupole moment (field-independent basis, Debye-Ang):
   XX=             -1.3965   YY=              1.9004   ZZ=             -0.5039
   XY=              0.0000   XZ=              0.0000   YZ=              0.0000
 Octapole moment (field-independent basis, Debye-Ang**2):
  XXX=              0.0000  YYY=              0.0000  ZZZ=             -1.4814  XYY=              0.0000
  XXY=              0.0000  XXZ=             -0.4284  XZZ=              0.0000  YZZ=              0.0000
  YYZ=             -1.3167  XYZ=              0.0000
 Hexadecapole moment (field-independent basis, Debye-Ang**3):
 XXXX=             -5.1686 YYYY=             -5.3085 ZZZZ=             -6.0230 XXXY=              0.0000
 XXXZ=              0.0000 YYYX=              0.0000 YYYZ=              0.0000 ZZZX=              0.0000
 ZZZY=              0.0000 XXYY=             -2.0283 XXZZ=             -1.8989 YYZZ=             -1.6661
 XXYZ=              0.0000 YYXZ=              0.0000 ZZXY=              0.0000
 N-N= 9.252613271372D+00 E-N=-1.991326666020D+02  KE= 7.601453873729D+01
 Symmetry A1   KE= 6.795834133756D+01
 Symmetry A2   KE= 0.000000000000D+00
 Symmetry B1   KE= 4.555300419658D+00
 Symmetry B2   KE= 3.500896980073D+00
 1\1\GINC-QTC\FOpt\RHF\6-31G\H2O1\ALUMNO\14-Jun-2024\0\\# opt hf/6-31g 
 geom=connectivity\\Title Card Required\\0,1\O,0.,-0.84915643,0.3070152
 98\H,0.,-0.0639917758,-0.227189504\H,0.,-1.6343210842,-0.227189504\\Ve
 rsion=EM64L-G09RevD.01\State=1-A1\HF=-75.9853592\RMSD=3.110e-09\RMSF=2
 .177e-05\Dipole=0.,0.,-0.9838505\Quadrupole=-1.0382664,1.4129082,-0.37
 46418,0.,0.,0.\PG=C02V [C2(O1),SGV(H2)]\\@


 THE GREAT THING ABOUT BEING IMPERFECT IS THE JOY IT BRINGS OTHERS.
   -- SIGN OUTSIDE LAKE AGASSIZ JR. HIGH SCHOOL, FARGO, N.D.
 Job cpu time:       0 days  0 hours  0 minutes  2.8 seconds.
 File lengths (MBytes):  RWF=      5 Int=      0 D2E=      0 Chk=      1 Scr=      1
 Normal termination of Gaussian 09 at Fri Jun 14 18:28:09 2024.
